       N       E                     dE             d eps       ncg     rms          rms(c)
DAV:   1     0.343857862574E+02    0.34386E+02   -0.46060E+03  2872   0.637E+02
DAV:   2    -0.538950772965E+01   -0.39775E+02   -0.37760E+02  3228   0.152E+02
DAV:   3    -0.590552638187E+01   -0.51602E+00   -0.51469E+00  3304   0.161E+01
DAV:   4    -0.590763558703E+01   -0.21092E-02   -0.21090E-02  3328   0.122E+00
DAV:   5    -0.590765295659E+01   -0.17370E-04   -0.17369E-04  3352   0.101E-01    0.107E+01
DAV:   6    -0.559139926235E+01    0.31625E+00   -0.67934E-01  3000   0.625E+00    0.570E+00
DAV:   7    -0.555608078749E+01    0.35318E-01   -0.13346E-01  3152   0.275E+00    0.228E+00
DAV:   8    -0.555364186982E+01    0.24389E-02   -0.46969E-03  2916   0.523E-01    0.609E-01
DAV:   9    -0.555340345851E+01    0.23841E-03   -0.11636E-04  3048   0.864E-02    0.788E-02
DAV:  10    -0.555340309819E+01    0.36032E-06   -0.52018E-06  1508   0.190E-02
   1 F= -.55534031E+01 E0= -.55522901E+01  d E =-.555340E+01
       N       E                     dE             d eps       ncg     rms          rms(c)
DAV:   1    -0.560992735627E+01   -0.56524E-01   -0.11856E+00  2800   0.963E+00    0.166E+00
DAV:   2    -0.555372448406E+01    0.56203E-01   -0.13157E-01  2752   0.264E+00    0.589E-01
DAV:   3    -0.554962274398E+01    0.41017E-02   -0.17174E-02  3228   0.911E-01    0.322E-01
DAV:   4    -0.554983210174E+01   -0.20936E-03   -0.70822E-04  2964   0.165E-01    0.541E-02
DAV:   5    -0.554981848999E+01    0.13612E-04   -0.16797E-05  1516   0.337E-02
   2 F= -.55498185E+01 E0= -.55487486E+01  d E =0.358461E-02
       N       E                     dE             d eps       ncg     rms          rms(c)
DAV:   1    -0.558698661050E+01   -0.37155E-01   -0.61579E-01  2812   0.687E+00    0.123E+00
DAV:   2    -0.555425879545E+01    0.32728E-01   -0.14242E-01  2748   0.224E+00    0.550E-01
DAV:   3    -0.555398782567E+01    0.27097E-03   -0.18343E-03  3268   0.289E-01    0.338E-01
DAV:   4    -0.555415049955E+01   -0.16267E-03   -0.48042E-04  2932   0.924E-02    0.334E-02
DAV:   5    -0.555414671542E+01    0.37841E-05   -0.26851E-05  1344   0.422E-02
   3 F= -.55541467E+01 E0= -.55530460E+01  d E =-.743617E-03
