 vasp.6.2.0 18Jan21 (build Feb  1 2022 01:28:57) complex                         
 executed on             LinuxPGI date 2022.05.18  19:36:32
 running on   16 total cores
 distrk:  each k-point on   16 cores,    1 groups
 distr:  one band on NCORE=   4 cores,    4 groups


--------------------------------------------------------------------------------------------------------


 INCAR:
   ALGO = 38
   EDIFF = 0.0001
   EDIFFG = -0.03
   ENCUT = 420
   GGA = RP
   IBRION = 2
   ISIF = 3
   ISMEAR = 0
   ISPIN = 1
   ISYM = 0
   LASPH = False
   LORBIT = 11
   LREAL = False
   LVTOT = False
   LWAVE = False
   NCORE = 4
   NELM = 60
   NELMIN = 4
   NSW = 300
   PREC = Normal
   SIGMA = 0.05
   SYMPREC = 1e-05

 POTCAR:    PAW_PBE Pt 04Feb2005                  
 POTCAR:    PAW_PBE Pt 04Feb2005                  
   SHA256 =  3ed90460adef76debcff1cfb73ee1349b515b1a3db03439735b44de3a8db7dc8 Pt/POTCAR             
   COPYR  = (c) Copyright 04Feb2005 Georg Kresse                                                    
   COPYR  = This file is part of the software VASP. Any use, copying, and all other rights are regul
   COPYR  = If you do not have a valid VASP license, you may not use, copy or distribute this file. 
   VRHFIN =Pt: s1d9                                                                                 
   LEXCH  = PE                                                                                      
   EATOM  =   729.1176 eV,   53.5886 Ry                                                             
                                                                                                    
   TITEL  = PAW_PBE Pt 04Feb2005                                                                    
   LULTRA =        F    use ultrasoft PP ?                                                          
   IUNSCR =        1    unscreen: 0-lin 1-nonlin 2-no                                               
   RPACOR =    2.330    partial core radius                                                         
   POMASS =  195.080; ZVAL   =   10.000    mass and valenz                                          
   RCORE  =    2.600    outmost cutoff radius                                                       
   RWIGS  =    2.750; RWIGS  =    1.455    wigner-seitz radius (au A)                               
   ENMAX  =  230.283; ENMIN  =  172.712 eV                                                          
   ICORE  =        3    local potential                                                             
   LCOR   =        T    correct aug charges                                                         
   LPAW   =        T    paw PP                                                                      
   EAUG   =  358.966                                                                                
   DEXC   =    0.000                                                                                
   RMAX   =    2.658    core radius for proj-oper                                                   
   RAUG   =    1.300    factor for augmentation sphere                                              
   RDEP   =    2.761    radius for radial grids                                                     
   RDEPT  =    2.203    core radius for aug-charge                                                  
                                                                                                    
   Atomic configuration                                                                             
   16 entries                                                                                       
     n  l   j            E        occ.                                                              
     1  0  0.50    -78401.1885   2.0000                                                             
     2  0  0.50    -13770.7750   2.0000                                                             
     2  1  1.50    -11931.0468   6.0000                                                             
     3  0  0.50     -3234.7234   2.0000                                                             
     3  1  1.50     -2699.2216   6.0000                                                             
     3  2  2.50     -2119.5714  10.0000                                                             
     4  0  0.50      -695.1528   2.0000                                                             
     4  1  1.50      -519.6034   6.0000                                                             
     4  2  2.50      -306.6786  10.0000                                                             
     4  3  3.50       -70.1041  14.0000                                                             
     5  0  0.50      -101.7747   2.0000                                                             
     5  1  1.50       -55.9873   6.0000                                                             
     5  2  2.50        -6.1423   9.0000                                                             
     6  0  0.50        -5.6573   1.0000                                                             
     6  1  1.50        -6.8029   0.0000                                                             
     5  3  2.50        -1.3606   0.0000                                                             
   Description                                                                                      
     l       E           TYP  RCUT    TYP  RCUT                                                     
     2     -6.1423404     23  2.500                                                                 
     2     -7.5029230     23  2.500                                                                 
     0     -5.6573207     23  2.500                                                                 
     0      0.7416693     23  2.500                                                                 
     1     -2.7211652     23  2.600                                                                 
     1     20.4087390     23  2.600                                                                 
     3     -1.3605826     23  2.500                                                                 
  local pseudopotential read in
  partial core-charges read in
  partial kinetic energy density read in
  atomic valenz-charges read in
  non local Contribution for L=            2  read in
    real space projection operators read in
  non local Contribution for L=            2  read in
    real space projection operators read in
  non local Contribution for L=            0  read in
    real space projection operators read in
  non local Contribution for L=            0  read in
    real space projection operators read in
  non local Contribution for L=            1  read in
    real space projection operators read in
  non local Contribution for L=            1  read in
    real space projection operators read in
    PAW grid and wavefunctions read in
 
   number of l-projection  operators is LMAX  =            6
   number of lm-projection operators is LMMAX =           18
 
 -----------------------------------------------------------------------------
|                                                                             |
|               ----> ADVICE to this user running VASP <----                  |
|                                                                             |
|     You enforced a specific xc type in the INCAR file but a different       |
|     type was found in the POTCAR file.                                      |
|     I HOPE YOU KNOW WHAT YOU ARE DOING!                                     |
|                                                                             |
 -----------------------------------------------------------------------------

  PAW_PBE Pt 04Feb2005                  :
 energy of atom  1       EATOM= -729.1176
 kinetic energy error for atom=    0.0052 (will be added to EATOM!!)
 
 
 POSCAR: Pt1
  positions in direct lattice
  No initial velocities read in
 exchange correlation table for  LEXCH =        9
   RHO(1)=    0.500       N(1)  =     2000
   RHO(2)=  100.500       N(2)  =     4000
 


--------------------------------------------------------------------------------------------------------


 ion  position               nearest neighbor table
   1  0.000  0.000  0.000-
 

IMPORTANT INFORMATION: All symmetrisations will be switched off!
NOSYMM: (Re-)initialisation of all symmetry stuff for point group C_1.


----------------------------------------------------------------------------------------

                                     Primitive cell                                     

  volume of cell :      15.8367

  direct lattice vectors                    reciprocal lattice vectors
     2.441129000  0.000000000  1.409393000     0.409646520 -0.144832247  0.000000000
     0.813711000  2.301517000  1.409393000     0.000000000  0.434496030  0.000000000
     0.000000000  0.000000000  2.818776000    -0.204823987 -0.144832405  0.354763912

  length of vectors
     2.818776228  2.818775394  2.818776000     0.434495859  0.434496030  0.434495943

  position of ions in fractional coordinates (direct lattice)
     0.000000000  0.000000000  0.000000000

  ion indices of the primitive-cell ions
   primitive index   ion index
                 1           1

----------------------------------------------------------------------------------------

 
 -----------------------------------------------------------------------------
|                                                                             |
|           W    W    AA    RRRRR   N    N  II  N    N   GGGG   !!!           |
|           W    W   A  A   R    R  NN   N  II  NN   N  G    G  !!!           |
|           W    W  A    A  R    R  N N  N  II  N N  N  G       !!!           |
|           W WW W  AAAAAA  RRRRR   N  N N  II  N  N N  G  GGG   !            |
|           WW  WW  A    A  R   R   N   NN  II  N   NN  G    G                |
|           W    W  A    A  R    R  N    N  II  N    N   GGGG   !!!           |
|                                                                             |
|     The requested file  could not be found or opened for reading            |
|     k-point information. Automatic k-point generation is used as a          |
|     fallback, which may lead to unwanted results.                           |
|                                                                             |
 -----------------------------------------------------------------------------

 

Automatic generation of k-mesh.
 Grid dimensions derived from KSPACING:
 generate k-points for:    6    6    6

 Generating k-lattice:

  Cartesian coordinates                     Fractional coordinates (reciprocal lattice)
     0.068274420 -0.024138708  0.000000000     0.166666667  0.000000000  0.000000000
     0.000000000  0.072416005  0.000000000     0.000000000  0.166666667  0.000000000
    -0.034137331 -0.024138734  0.059127319    -0.000000000 -0.000000000  0.166666667

  Length of vectors
     0.072415976  0.072416005  0.072415990

  Shift w.r.t. Gamma in fractional coordinates (k-lattice)
     0.000000000  0.000000000  0.000000000

 
 Subroutine IBZKPT returns following result:
 ===========================================
 
 Found    112 irreducible k-points:
 
 Following reciprocal coordinates:
            Coordinates               Weight
  0.000000  0.000000  0.000000      1.000000
  0.166667  0.000000  0.000000      2.000000
  0.000000  0.166667  0.000000      2.000000
  0.000000  0.000000  0.166667      2.000000
  0.166667  0.166667  0.166667      2.000000
  0.333333  0.000000  0.000000      2.000000
  0.000000  0.333333  0.000000      2.000000
  0.000000  0.000000  0.333333      2.000000
  0.333333  0.333333  0.333333      2.000000
  0.500000  0.000000  0.000000      1.000000
  0.000000  0.500000  0.000000      1.000000
  0.000000  0.000000  0.500000      1.000000
  0.500000  0.500000  0.500000      1.000000
  0.166667  0.166667  0.000000      2.000000
  0.000000  0.166667  0.166667      2.000000
  0.166667  0.000000  0.166667      2.000000
  0.333333  0.166667  0.000000      2.000000
  0.000000  0.333333  0.166667      2.000000
  0.166667  0.000000  0.333333      2.000000
  0.166667  0.166667 -0.166667      2.000000
  0.333333  0.166667  0.333333      2.000000
  0.166667  0.333333  0.000000      2.000000
  0.166667 -0.166667 -0.166667      2.000000
  0.333333  0.333333  0.166667      2.000000
  0.000000  0.166667  0.333333      2.000000
 -0.166667  0.166667 -0.166667      2.000000
  0.166667  0.333333  0.333333      2.000000
  0.333333  0.000000  0.166667      2.000000
  0.500000  0.166667  0.000000      2.000000
  0.000000  0.500000  0.166667      2.000000
  0.166667  0.000000  0.500000      2.000000
  0.166667  0.166667 -0.333333      2.000000
  0.500000  0.333333  0.500000      2.000000
  0.166667  0.500000  0.000000      2.000000
  0.333333 -0.166667 -0.166667      2.000000
  0.500000  0.500000  0.333333      2.000000
  0.000000  0.166667  0.500000      2.000000
 -0.166667  0.333333 -0.166667      2.000000
  0.333333  0.500000  0.500000      2.000000
  0.500000  0.000000  0.166667      2.000000
 -0.333333  0.166667  0.000000      2.000000
  0.000000 -0.333333  0.166667      2.000000
  0.166667  0.000000 -0.333333      2.000000
  0.166667  0.166667  0.500000      2.000000
 -0.333333  0.500000 -0.333333      2.000000
  0.166667 -0.333333  0.000000      2.000000
  0.500000 -0.166667 -0.166667      2.000000
 -0.333333 -0.333333  0.500000      2.000000
  0.000000  0.166667 -0.333333      2.000000
 -0.166667  0.500000 -0.166667      2.000000
  0.500000 -0.333333 -0.333333      2.000000
 -0.333333  0.000000  0.166667      2.000000
 -0.166667  0.166667  0.000000      2.000000
  0.000000 -0.166667  0.166667      2.000000
  0.166667  0.000000 -0.166667      2.000000
  0.166667  0.166667  0.333333      2.000000
 -0.166667 -0.333333 -0.166667      2.000000
 -0.333333 -0.166667 -0.166667      2.000000
  0.333333  0.333333  0.000000      2.000000
  0.000000  0.333333  0.333333      2.000000
  0.333333  0.000000  0.333333      2.000000
  0.500000  0.333333  0.000000      2.000000
  0.000000  0.500000  0.333333      2.000000
  0.333333  0.000000  0.500000      2.000000
  0.333333  0.333333 -0.166667      2.000000
  0.500000  0.166667  0.500000      2.000000
  0.333333  0.500000  0.000000      2.000000
  0.166667 -0.333333 -0.333333      2.000000
  0.500000  0.500000  0.166667      2.000000
  0.000000  0.333333  0.500000      2.000000
 -0.333333  0.166667 -0.333333      2.000000
  0.166667  0.500000  0.500000      2.000000
  0.500000  0.000000  0.333333      2.000000
 -0.333333  0.333333  0.000000      2.000000
  0.000000 -0.333333  0.333333      2.000000
  0.333333  0.000000 -0.333333      2.000000
  0.333333  0.333333 -0.333333      2.000000
 -0.333333  0.333333 -0.333333      2.000000
  0.333333 -0.333333 -0.333333      2.000000
  0.500000  0.500000  0.000000      1.000000
  0.000000  0.500000  0.500000      1.000000
  0.500000  0.000000  0.500000      1.000000
  0.500000  0.333333  0.166667      2.000000
  0.166667  0.500000  0.333333      2.000000
  0.333333  0.166667  0.500000      2.000000
  0.333333  0.166667 -0.166667      2.000000
  0.500000  0.166667  0.333333      2.000000
  0.166667 -0.333333 -0.166667      2.000000
  0.166667  0.333333 -0.166667      2.000000
  0.166667 -0.166667 -0.333333      2.000000
  0.333333  0.500000  0.166667      2.000000
 -0.166667  0.166667 -0.333333      2.000000
 -0.333333  0.166667 -0.166667      2.000000
  0.166667  0.333333  0.500000      2.000000
 -0.333333  0.333333  0.166667      2.000000
  0.166667 -0.333333  0.333333      2.000000
  0.333333  0.166667 -0.333333      2.000000
 -0.333333  0.333333  0.500000      2.000000
  0.166667  0.500000 -0.166667      2.000000
  0.333333 -0.166667 -0.333333      2.000000
  0.500000 -0.333333  0.333333      2.000000
 -0.166667  0.166667  0.500000      2.000000
 -0.333333  0.333333 -0.166667      2.000000
  0.333333  0.500000 -0.333333      2.000000
  0.500000 -0.166667  0.166667      2.000000
 -0.166667 -0.333333  0.333333      2.000000
 -0.333333  0.500000  0.166667      2.000000
  0.166667 -0.333333  0.500000      2.000000
  0.500000  0.166667 -0.333333      2.000000
  0.500000  0.333333 -0.166667      2.000000
 -0.333333  0.166667  0.500000      2.000000
  0.166667  0.500000 -0.333333      2.000000
 
 Following cartesian coordinates:
            Coordinates               Weight
  0.000000  0.000000  0.000000      1.000000
  0.068274 -0.024139  0.000000      2.000000
  0.000000  0.072416  0.000000      2.000000
 -0.034137 -0.024139  0.059127      2.000000
  0.034137  0.024139  0.059127      2.000000
  0.136549 -0.048277  0.000000      2.000000
  0.000000  0.144832  0.000000      2.000000
 -0.068275 -0.048277  0.118255      2.000000
  0.068274  0.048277  0.118255      2.000000
  0.204823 -0.072416  0.000000      1.000000
  0.000000  0.217248  0.000000      1.000000
 -0.102412 -0.072416  0.177382      1.000000
  0.102411  0.072416  0.177382      1.000000
  0.068274  0.048277  0.000000      2.000000
 -0.034137  0.048277  0.059127      2.000000
  0.034137 -0.048277  0.059127      2.000000
  0.136549  0.024139  0.000000      2.000000
 -0.034137  0.120693  0.059127      2.000000
 -0.000000 -0.072416  0.118255      2.000000
  0.102412  0.072416 -0.059127      2.000000
  0.068274 -0.024139  0.118255      2.000000
  0.068274  0.120693  0.000000      2.000000
  0.102412 -0.072416 -0.059127      2.000000
  0.102412  0.072416  0.059127      2.000000
 -0.068275  0.024139  0.118255      2.000000
 -0.034137  0.120693 -0.059127      2.000000
 -0.000000  0.072416  0.118255      2.000000
  0.102412 -0.072416  0.059127      2.000000
  0.204823 -0.000000  0.000000      2.000000
 -0.034137  0.193109  0.059127      2.000000
 -0.034138 -0.096555  0.177382      2.000000
  0.136549  0.096555 -0.118255      2.000000
  0.102411 -0.000000  0.177382      2.000000
  0.068274  0.193109  0.000000      2.000000
  0.170686 -0.096555 -0.059127      2.000000
  0.136549  0.096554  0.118255      2.000000
 -0.102412 -0.000000  0.177382      2.000000
 -0.034137  0.193109 -0.059127      2.000000
  0.034137  0.096554  0.177382      2.000000
  0.170686 -0.096555  0.059127      2.000000
 -0.136549  0.120693  0.000000      2.000000
 -0.034137 -0.168971  0.059127      2.000000
  0.136549  0.024139 -0.118255      2.000000
 -0.034138 -0.024139  0.177382      2.000000
 -0.068274  0.313803 -0.118255      2.000000
  0.068274 -0.168971  0.000000      2.000000
  0.238961 -0.120693 -0.059127      2.000000
 -0.238961 -0.168971  0.177382      2.000000
  0.068275  0.120693 -0.118255      2.000000
 -0.034137  0.265525 -0.059127      2.000000
  0.273098 -0.168971 -0.118255      2.000000
 -0.170686  0.024139  0.059127      2.000000
 -0.068274  0.096555  0.000000      2.000000
 -0.034137 -0.096555  0.059127      2.000000
  0.102412  0.000000 -0.059127      2.000000
 -0.000000 -0.000000  0.118255      2.000000
 -0.034137 -0.096555 -0.059127      2.000000
 -0.102412  0.000000 -0.059127      2.000000
  0.136549  0.096555  0.000000      2.000000
 -0.068275  0.096555  0.118255      2.000000
  0.068274 -0.096555  0.118255      2.000000
  0.204823  0.072416  0.000000      2.000000
 -0.068275  0.168971  0.118255      2.000000
  0.034137 -0.120694  0.177382      2.000000
  0.170686  0.120693 -0.059127      2.000000
  0.102411 -0.072416  0.177382      2.000000
  0.136549  0.168971  0.000000      2.000000
  0.136549 -0.120693 -0.118255      2.000000
  0.170686  0.120693  0.059127      2.000000
 -0.102412  0.072416  0.177382      2.000000
 -0.068274  0.168971 -0.118255      2.000000
 -0.034138  0.120693  0.177382      2.000000
  0.136549 -0.120694  0.118255      2.000000
 -0.136549  0.193109  0.000000      2.000000
 -0.068275 -0.193109  0.118255      2.000000
  0.204824  0.000000 -0.118255      2.000000
  0.204824  0.144832 -0.118255      2.000000
 -0.068274  0.241387 -0.118255      2.000000
  0.204824 -0.144832 -0.118255      2.000000
  0.204823  0.144832  0.000000      1.000000
 -0.102412  0.144832  0.177382      1.000000
  0.102411 -0.144832  0.177382      1.000000
  0.170686  0.048277  0.059127      2.000000
 -0.000000  0.144832  0.118255      2.000000
  0.034137 -0.048278  0.177382      2.000000
  0.170686  0.048277 -0.059127      2.000000
  0.136549 -0.048278  0.118255      2.000000
  0.102412 -0.144832 -0.059127      2.000000
  0.102412  0.144832 -0.059127      2.000000
  0.136549 -0.048277 -0.118255      2.000000
  0.102412  0.144832  0.059127      2.000000
  0.000000  0.144832 -0.118255      2.000000
 -0.102412  0.144832 -0.059127      2.000000
 -0.034138  0.048277  0.177382      2.000000
 -0.170686  0.168971  0.059127      2.000000
 -0.000000 -0.217248  0.118255      2.000000
  0.204824  0.072416 -0.118255      2.000000
 -0.238961  0.120693  0.177382      2.000000
  0.102412  0.217248 -0.059127      2.000000
  0.204824 -0.072416 -0.118255      2.000000
  0.136549 -0.265526  0.118255      2.000000
 -0.170686  0.024139  0.177382      2.000000
 -0.102412  0.217248 -0.059127      2.000000
  0.204824  0.217248 -0.118255      2.000000
  0.170686 -0.168971  0.059127      2.000000
 -0.136549 -0.168971  0.118255      2.000000
 -0.170686  0.241387  0.059127      2.000000
 -0.034138 -0.241387  0.177382      2.000000
  0.273098  0.048277 -0.118255      2.000000
  0.238961  0.096555 -0.059127      2.000000
 -0.238961  0.048277  0.177382      2.000000
  0.136549  0.241387 -0.118255      2.000000
 


--------------------------------------------------------------------------------------------------------




 Dimension of arrays:
   k-points           NKPTS =    112   k-points in BZ     NKDIM =    112   number of bands    NBANDS=     12
   number of dos      NEDOS =    301   number of ions     NIONS =      1
   non local maximal  LDIM  =      6   non local SUM 2l+1 LMDIM =     18
   total plane-waves  NPLWV =   2744
   max r-space proj   IRMAX =      1   max aug-charges    IRDMAX=  10693
   dimension x,y,z NGX =    14 NGY =   14 NGZ =   14
   dimension x,y,z NGXF=    28 NGYF=   28 NGZF=   28
   support grid    NGXF=    28 NGYF=   28 NGZF=   28
   ions per type =               1
   NGX,Y,Z   is equivalent  to a cutoff of   8.26,  8.26,  8.26 a.u.
   NGXF,Y,Z  is equivalent  to a cutoff of  16.51, 16.51, 16.51 a.u.

 SYSTEM =  unknown system                          
 POSCAR =  Pt1                                     

 Startparameter for this run:
   NWRITE =      2    write-flag & timer
   PREC   = normal    normal or accurate (medium, high low for compatibility)
   ISTART =      0    job   : 0-new  1-cont  2-samecut
   ICHARG =      2    charge: 1-file 2-atom 10-const
   ISPIN  =      1    spin polarized calculation?
   LNONCOLLINEAR =      F non collinear calculations
   LSORBIT =      F    spin-orbit coupling
   INIWAV =      1    electr: 0-lowe 1-rand  2-diag
   LASPH  =      F    aspherical Exc in radial PAW
   METAGGA=      F    non-selfconsistent MetaGGA calc.

 Electronic Relaxation 1
   ENCUT  =  420.0 eV  30.87 Ry    5.56 a.u.   4.71  4.71  4.71*2*pi/ulx,y,z
   ENINI  =  420.0     initial cutoff
   ENAUG  =  359.0 eV  augmentation charge cutoff
   NELM   =     60;   NELMIN=  4; NELMDL= -5     # of ELM steps 
   EDIFF  = 0.1E-03   stopping-criterion for ELM
   LREAL  =      F    real-space projection
   NLSPLINE    = F    spline interpolate recip. space projectors
   LCOMPAT=      F    compatible to vasp.4.4
   GGA_COMPAT  = T    GGA compatible to vasp.4.4-vasp.4.6
   LMAXPAW     = -100 max onsite density
   LMAXMIX     =    2 max onsite mixed and CHGCAR
   VOSKOWN=      0    Vosko Wilk Nusair interpolation
   ROPT   =    0.00000
 Ionic relaxation
   EDIFFG = -.3E-01   stopping-criterion for IOM
   NSW    =    300    number of steps for IOM
   NBLOCK =      1;   KBLOCK =    300    inner block; outer block 
   IBRION =      2    ionic relax: 0-MD 1-quasi-New 2-CG
   NFREE  =      1    steps in history (QN), initial steepest desc. (CG)
   ISIF   =      3    stress and relaxation
   IWAVPR =     11    prediction:  0-non 1-charg 2-wave 3-comb
   ISYM   =      0    0-nonsym 1-usesym 2-fastsym
   LCORR  =      T    Harris-Foulkes like correction to forces

   POTIM  = 0.5000    time-step for ionic-motion
   TEIN   =    0.0    initial temperature
   TEBEG  =    0.0;   TEEND  =   0.0 temperature during run
   SMASS  =  -3.00    Nose mass-parameter (am)
   estimated Nose-frequenzy (Omega)   =  0.10E-29 period in steps = 0.13E+47 mass=  -0.182E-27a.u.
   SCALEE = 1.0000    scale energy and forces
   NPACO  =    256;   APACO  = 16.0  distance and # of slots for P.C.
   PSTRESS=    0.0 pullay stress

  Mass of Ions in am
   POMASS = 195.08
  Ionic Valenz
   ZVAL   =  10.00
  Atomic Wigner-Seitz radii
   RWIGS  =  -1.00
  virtual crystal weights 
   VCA    =   1.00
   NELECT =      10.0000    total number of electrons
   NUPDOWN=      -1.0000    fix difference up-down

 DOS related values:
   EMIN   =  10.00;   EMAX   =-10.00  energy-range for DOS
   EFERMI =   0.00
   ISMEAR =     0;   SIGMA  =   0.05  broadening in eV -4-tet -1-fermi 0-gaus

 Electronic relaxation 2 (details)
   IALGO  =     38    algorithm
   LDIAG  =      T    sub-space diagonalisation (order eigenvalues)
   LSUBROT=      F    optimize rotation matrix (better conditioning)
   TURBO    =      0    0=normal 1=particle mesh
   IRESTART =      0    0=no restart 2=restart with 2 vectors
   NREBOOT  =      0    no. of reboots
   NMIN     =      0    reboot dimension
   EREF     =   0.00    reference energy to select bands
   IMIX   =      4    mixing-type and parameters
     AMIX     =   0.40;   BMIX     =  1.00
     AMIX_MAG =   1.60;   BMIX_MAG =  1.00
     AMIN     =   0.10
     WC   =   100.;   INIMIX=   1;  MIXPRE=   1;  MAXMIX= -45

 Intra band minimization:
   WEIMIN = 0.0010     energy-eigenvalue tresh-hold
   EBREAK =  0.21E-05  absolut break condition
   DEPER  =   0.30     relativ break condition  

   TIME   =   0.40     timestep for ELM

  volume/ion in A,a.u.               =      15.84       106.87
  Fermi-wavevector in a.u.,A,eV,Ry     =   1.404493  2.654107 26.838872  1.972601
  Thomas-Fermi vector in A             =   2.527049
 
 Write flags
   LWAVE        =      F    write WAVECAR
   LDOWNSAMPLE  =      F    k-point downsampling of WAVECAR
   LCHARG       =      T    write CHGCAR
   LVTOT        =      F    write LOCPOT, total local potential
   LVHAR        =      F    write LOCPOT, Hartree potential only
   LELF         =      F    write electronic localiz. function (ELF)
   LORBIT       =     11    0 simple, 1 ext, 2 COOP (PROOUT), +10 PAW based schemes


 Dipole corrections
   LMONO  =      F    monopole corrections only (constant potential shift)
   LDIPOL =      F    correct potential (dipole corrections)
   IDIPOL =      0    1-x, 2-y, 3-z, 4-all directions 
   EPSILON=  1.0000000 bulk dielectric constant

 Exchange correlation treatment:
   GGA     =    RP    GGA type
   LEXCH   =     9    internal setting for exchange type
   VOSKOWN=      0    Vosko Wilk Nusair interpolation
   LHFCALC =     F    Hartree Fock is set to
   LHFONE  =     F    Hartree Fock one center treatment
   AEXX    =    0.0000 exact exchange contribution

 Linear response parameters
   LEPSILON=     F    determine dielectric tensor
   LRPA    =     F    only Hartree local field effects (RPA)
   LNABLA  =     F    use nabla operator in PAW spheres
   LVEL    =     F    velocity operator in full k-point grid
   LINTERFAST=   F  fast interpolation
   KINTER  =     0    interpolate to denser k-point grid
   CSHIFT  =0.1000    complex shift for real part using Kramers Kronig
   OMEGAMAX=  -1.0    maximum frequency
   DEG_THRESHOLD= 0.2000000E-02 threshold for treating states as degnerate
   RTIME   =   -0.100 relaxation time in fs
  (WPLASMAI=    0.000 imaginary part of plasma frequency in eV, 0.658/RTIME)
   DFIELD  = 0.0000000 0.0000000 0.0000000 field for delta impulse in time
 
 Orbital magnetization related:
   ORBITALMAG=     F  switch on orbital magnetization
   LCHIMAG   =     F  perturbation theory with respect to B field
   DQ        =  0.001000  dq finite difference perturbation B field
   LLRAUG    =     F  two centre corrections for induced B field



--------------------------------------------------------------------------------------------------------


 conjugate gradient relaxation of ions
 charge density and potential will be updated during run
 non-spin polarized calculation
 Variant of blocked Davidson
 Davidson routine will perform the subspace rotation
 perform sub-space diagonalisation
    after iterative eigenvector-optimisation
 modified Broyden-mixing scheme, WC =      100.0
 initial mixing is a Kerker type mixing with AMIX =  0.4000 and BMIX =      1.0000
 Hartree-type preconditioning will be used
 using additional bands             7
 reciprocal scheme for non local part
 use partial core corrections
 calculate Harris-corrections to forces 
   (improved forces if not selfconsistent)
 use gradient corrections 
 use of overlap-Matrix (Vanderbilt PP)
 Gauss-broadening in eV      SIGMA  =   0.05


--------------------------------------------------------------------------------------------------------


  energy-cutoff  :      420.00
  volume of cell :       15.84
      direct lattice vectors                 reciprocal lattice vectors
     2.441129000  0.000000000  1.409393000     0.409646520 -0.144832247  0.000000000
     0.813711000  2.301517000  1.409393000     0.000000000  0.434496030  0.000000000
     0.000000000  0.000000000  2.818776000    -0.204823987 -0.144832405  0.354763912

  length of vectors
     2.818776228  2.818775394  2.818776000     0.434495859  0.434496030  0.434495943


 
 k-points in units of 2pi/SCALE and weight: read from INCAR                         
   0.00000000  0.00000000  0.00000000       0.005
   0.06827442 -0.02413871  0.00000000       0.009
   0.00000000  0.07241601  0.00000000       0.009
  -0.03413733 -0.02413873  0.05912732       0.009
   0.03413709  0.02413856  0.05912732       0.009
   0.13654884 -0.04827742  0.00000000       0.009
   0.00000000  0.14483201  0.00000000       0.009
  -0.06827466 -0.04827747  0.11825464       0.009
   0.06827418  0.04827713  0.11825464       0.009
   0.20482326 -0.07241612  0.00000000       0.005
   0.00000000  0.21724802  0.00000000       0.005
  -0.10241199 -0.07241620  0.17738196       0.005
   0.10241127  0.07241569  0.17738196       0.005
   0.06827442  0.04827730  0.00000000       0.009
  -0.03413733  0.04827727  0.05912732       0.009
   0.03413709 -0.04827744  0.05912732       0.009
   0.13654884  0.02413859  0.00000000       0.009
  -0.03413733  0.12069328  0.05912732       0.009
  -0.00000024 -0.07241618  0.11825464       0.009
   0.10241175  0.07241603 -0.05912732       0.009
   0.06827418 -0.02413888  0.11825464       0.009
   0.06827442  0.12069330  0.00000000       0.009
   0.10241175 -0.07241598 -0.05912732       0.009
   0.10241151  0.07241586  0.05912732       0.009
  -0.06827466  0.02413854  0.11825464       0.009
  -0.03413709  0.12069345 -0.05912732       0.009
  -0.00000024  0.07241583  0.11825464       0.009
   0.10241151 -0.07241615  0.05912732       0.009
   0.20482326 -0.00000012  0.00000000       0.009
  -0.03413733  0.19310928  0.05912732       0.009
  -0.03413757 -0.09655491  0.17738196       0.009
   0.13654908  0.09655477 -0.11825464       0.009
   0.10241127 -0.00000032  0.17738196       0.009
   0.06827442  0.19310931  0.00000000       0.009
   0.17068617 -0.09655469 -0.05912732       0.009
   0.13654860  0.09655442  0.11825464       0.009
  -0.10241199 -0.00000020  0.17738196       0.009
  -0.03413709  0.19310945 -0.05912732       0.009
   0.03413685  0.09655440  0.17738196       0.009
   0.17068593 -0.09655486  0.05912732       0.009
  -0.13654884  0.12069342  0.00000000       0.009
  -0.03413733 -0.16897074  0.05912732       0.009
   0.13654908  0.02413876 -0.11825464       0.009
  -0.03413757 -0.02413891  0.17738196       0.009
  -0.06827418  0.31380290 -0.11825464       0.009
   0.06827442 -0.16897072  0.00000000       0.009
   0.23896059 -0.12069339 -0.05912732       0.009
  -0.23896083 -0.16897080  0.17738196       0.009
   0.06827466  0.12069347 -0.11825464       0.009
  -0.03413709  0.26552546 -0.05912732       0.009
   0.27309792 -0.16897067 -0.11825464       0.009
  -0.17068617  0.02413868  0.05912732       0.009
  -0.06827442  0.09655471  0.00000000       0.009
  -0.03413733 -0.09655474  0.05912732       0.009
   0.10241175  0.00000003 -0.05912732       0.009
  -0.00000024 -0.00000017  0.11825464       0.009
  -0.03413709 -0.09655457 -0.05912732       0.009
  -0.10241151  0.00000014 -0.05912732       0.009
   0.13654884  0.09655459  0.00000000       0.009
  -0.06827466  0.09655454  0.11825464       0.009
   0.06827418 -0.09655488  0.11825464       0.009
   0.20482326  0.07241589  0.00000000       0.009
  -0.06827466  0.16897055  0.11825464       0.009
   0.03413685 -0.12069362  0.17738196       0.009
   0.17068617  0.12069333 -0.05912732       0.009
   0.10241127 -0.07241632  0.17738196       0.009
   0.13654884  0.16897060  0.00000000       0.009
   0.13654908 -0.12069325 -0.11825464       0.009
   0.17068593  0.12069316  0.05912732       0.009
  -0.10241199  0.07241581  0.17738196       0.009
  -0.06827418  0.16897089 -0.11825464       0.009
  -0.03413757  0.12069310  0.17738196       0.009
   0.13654860 -0.12069359  0.11825464       0.009
  -0.13654884  0.19310943  0.00000000       0.009
  -0.06827466 -0.19310948  0.11825464       0.009
   0.20482350  0.00000005 -0.11825464       0.009
   0.20482350  0.14483206 -0.11825464       0.009
  -0.06827418  0.24138689 -0.11825464       0.009
   0.20482350 -0.14483196 -0.11825464       0.009
   0.20482326  0.14483189  0.00000000       0.005
  -0.10241199  0.14483181  0.17738196       0.005
   0.10241127 -0.14483233  0.17738196       0.005
   0.17068593  0.04827715  0.05912732       0.009
  -0.00000024  0.14483184  0.11825464       0.009
   0.03413685 -0.04827761  0.17738196       0.009
   0.17068617  0.04827732 -0.05912732       0.009
   0.13654860 -0.04827759  0.11825464       0.009
   0.10241175 -0.14483198 -0.05912732       0.009
   0.10241175  0.14483204 -0.05912732       0.009
   0.13654908 -0.04827724 -0.11825464       0.009
   0.10241151  0.14483187  0.05912732       0.009
   0.00000024  0.14483218 -0.11825464       0.009
  -0.10241151  0.14483216 -0.05912732       0.009
  -0.03413757  0.04827710  0.17738196       0.009
  -0.17068617  0.16897069  0.05912732       0.009
  -0.00000024 -0.21724819  0.11825464       0.009
   0.20482350  0.07241606 -0.11825464       0.009
  -0.23896083  0.12069322  0.17738196       0.009
   0.10241175  0.21724804 -0.05912732       0.009
   0.20482350 -0.07241595 -0.11825464       0.009
   0.13654860 -0.26552560  0.11825464       0.009
  -0.17068641  0.02413851  0.17738196       0.009
  -0.10241151  0.21724816 -0.05912732       0.009
   0.20482350  0.21724807 -0.11825464       0.009
   0.17068593 -0.16897086  0.05912732       0.009
  -0.13654908 -0.16897077  0.11825464       0.009
  -0.17068617  0.24138670  0.05912732       0.009
  -0.03413757 -0.24138692  0.17738196       0.009
   0.27309792  0.04827735 -0.11825464       0.009
   0.23896059  0.09655462 -0.05912732       0.009
  -0.23896083  0.04827722  0.17738196       0.009
   0.13654908  0.24138678 -0.11825464       0.009
 
 k-points in reciprocal lattice and weights: read from INCAR                         
   0.00000000  0.00000000  0.00000000       0.005
   0.16666667  0.00000000  0.00000000       0.009
   0.00000000  0.16666667  0.00000000       0.009
   0.00000000  0.00000000  0.16666667       0.009
   0.16666667  0.16666667  0.16666667       0.009
   0.33333333  0.00000000  0.00000000       0.009
   0.00000000  0.33333333  0.00000000       0.009
   0.00000000  0.00000000  0.33333333       0.009
   0.33333333  0.33333333  0.33333333       0.009
   0.50000000  0.00000000  0.00000000       0.005
   0.00000000  0.50000000  0.00000000       0.005
   0.00000000  0.00000000  0.50000000       0.005
   0.50000000  0.50000000  0.50000000       0.005
   0.16666667  0.16666667  0.00000000       0.009
   0.00000000  0.16666667  0.16666667       0.009
   0.16666667  0.00000000  0.16666667       0.009
   0.33333333  0.16666667  0.00000000       0.009
   0.00000000  0.33333333  0.16666667       0.009
   0.16666667  0.00000000  0.33333333       0.009
   0.16666667  0.16666667 -0.16666667       0.009
   0.33333333  0.16666667  0.33333333       0.009
   0.16666667  0.33333333  0.00000000       0.009
   0.16666667 -0.16666667 -0.16666667       0.009
   0.33333333  0.33333333  0.16666667       0.009
   0.00000000  0.16666667  0.33333333       0.009
  -0.16666667  0.16666667 -0.16666667       0.009
   0.16666667  0.33333333  0.33333333       0.009
   0.33333333  0.00000000  0.16666667       0.009
   0.50000000  0.16666667  0.00000000       0.009
   0.00000000  0.50000000  0.16666667       0.009
   0.16666667  0.00000000  0.50000000       0.009
   0.16666667  0.16666667 -0.33333333       0.009
   0.50000000  0.33333333  0.50000000       0.009
   0.16666667  0.50000000  0.00000000       0.009
   0.33333333 -0.16666667 -0.16666667       0.009
   0.50000000  0.50000000  0.33333333       0.009
   0.00000000  0.16666667  0.50000000       0.009
  -0.16666667  0.33333333 -0.16666667       0.009
   0.33333333  0.50000000  0.50000000       0.009
   0.50000000  0.00000000  0.16666667       0.009
  -0.33333333  0.16666667  0.00000000       0.009
   0.00000000 -0.33333333  0.16666667       0.009
   0.16666667  0.00000000 -0.33333333       0.009
   0.16666667  0.16666667  0.50000000       0.009
  -0.33333333  0.50000000 -0.33333333       0.009
   0.16666667 -0.33333333  0.00000000       0.009
   0.50000000 -0.16666667 -0.16666667       0.009
  -0.33333333 -0.33333333  0.50000000       0.009
   0.00000000  0.16666667 -0.33333333       0.009
  -0.16666667  0.50000000 -0.16666667       0.009
   0.50000000 -0.33333333 -0.33333333       0.009
  -0.33333333  0.00000000  0.16666667       0.009
  -0.16666667  0.16666667  0.00000000       0.009
   0.00000000 -0.16666667  0.16666667       0.009
   0.16666667  0.00000000 -0.16666667       0.009
   0.16666667  0.16666667  0.33333333       0.009
  -0.16666667 -0.33333333 -0.16666667       0.009
  -0.33333333 -0.16666667 -0.16666667       0.009
   0.33333333  0.33333333  0.00000000       0.009
   0.00000000  0.33333333  0.33333333       0.009
   0.33333333  0.00000000  0.33333333       0.009
   0.50000000  0.33333333  0.00000000       0.009
   0.00000000  0.50000000  0.33333333       0.009
   0.33333333  0.00000000  0.50000000       0.009
   0.33333333  0.33333333 -0.16666667       0.009
   0.50000000  0.16666667  0.50000000       0.009
   0.33333333  0.50000000  0.00000000       0.009
   0.16666667 -0.33333333 -0.33333333       0.009
   0.50000000  0.50000000  0.16666667       0.009
   0.00000000  0.33333333  0.50000000       0.009
  -0.33333333  0.16666667 -0.33333333       0.009
   0.16666667  0.50000000  0.50000000       0.009
   0.50000000  0.00000000  0.33333333       0.009
  -0.33333333  0.33333333  0.00000000       0.009
   0.00000000 -0.33333333  0.33333333       0.009
   0.33333333  0.00000000 -0.33333333       0.009
   0.33333333  0.33333333 -0.33333333       0.009
  -0.33333333  0.33333333 -0.33333333       0.009
   0.33333333 -0.33333333 -0.33333333       0.009
   0.50000000  0.50000000  0.00000000       0.005
   0.00000000  0.50000000  0.50000000       0.005
   0.50000000  0.00000000  0.50000000       0.005
   0.50000000  0.33333333  0.16666667       0.009
   0.16666667  0.50000000  0.33333333       0.009
   0.33333333  0.16666667  0.50000000       0.009
   0.33333333  0.16666667 -0.16666667       0.009
   0.50000000  0.16666667  0.33333333       0.009
   0.16666667 -0.33333333 -0.16666667       0.009
   0.16666667  0.33333333 -0.16666667       0.009
   0.16666667 -0.16666667 -0.33333333       0.009
   0.33333333  0.50000000  0.16666667       0.009
  -0.16666667  0.16666667 -0.33333333       0.009
  -0.33333333  0.16666667 -0.16666667       0.009
   0.16666667  0.33333333  0.50000000       0.009
  -0.33333333  0.33333333  0.16666667       0.009
   0.16666667 -0.33333333  0.33333333       0.009
   0.33333333  0.16666667 -0.33333333       0.009
  -0.33333333  0.33333333  0.50000000       0.009
   0.16666667  0.50000000 -0.16666667       0.009
   0.33333333 -0.16666667 -0.33333333       0.009
   0.50000000 -0.33333333  0.33333333       0.009
  -0.16666667  0.16666667  0.50000000       0.009
  -0.33333333  0.33333333 -0.16666667       0.009
   0.33333333  0.50000000 -0.33333333       0.009
   0.50000000 -0.16666667  0.16666667       0.009
  -0.16666667 -0.33333333  0.33333333       0.009
  -0.33333333  0.50000000  0.16666667       0.009
   0.16666667 -0.33333333  0.50000000       0.009
   0.50000000  0.16666667 -0.33333333       0.009
   0.50000000  0.33333333 -0.16666667       0.009
  -0.33333333  0.16666667  0.50000000       0.009
   0.16666667  0.50000000 -0.33333333       0.009
 
 position of ions in fractional coordinates (direct lattice) 
   0.00000000  0.00000000  0.00000000
 
 position of ions in cartesian coordinates  (Angst):
   0.00000000  0.00000000  0.00000000
 


--------------------------------------------------------------------------------------------------------


 k-point   1 :   0.0000 0.0000 0.0000  plane waves:     331
 k-point   2 :   0.1667 0.0000 0.0000  plane waves:     311
 k-point   3 :   0.0000 0.1667 0.0000  plane waves:     311
 k-point   4 :   0.0000 0.0000 0.1667  plane waves:     311
 k-point   5 :   0.1667 0.1667 0.1667  plane waves:     311
 k-point   6 :   0.3333 0.0000 0.0000  plane waves:     308
 k-point   7 :   0.0000 0.3333 0.0000  plane waves:     308
 k-point   8 :   0.0000 0.0000 0.3333  plane waves:     308
 k-point   9 :   0.3333 0.3333 0.3333  plane waves:     308
 k-point  10 :   0.5000 0.0000 0.0000  plane waves:     302
 k-point  11 :   0.0000 0.5000 0.0000  plane waves:     302
 k-point  12 :   0.0000 0.0000 0.5000  plane waves:     302
 k-point  13 :   0.5000 0.5000 0.5000  plane waves:     302
 k-point  14 :   0.1667 0.1667 0.0000  plane waves:     307
 k-point  15 :   0.0000 0.1667 0.1667  plane waves:     307
 k-point  16 :   0.1667 0.0000 0.1667  plane waves:     307
 k-point  17 :   0.3333 0.1667 0.0000  plane waves:     313
 k-point  18 :   0.0000 0.3333 0.1667  plane waves:     313
 k-point  19 :   0.1667 0.0000 0.3333  plane waves:     313
 k-point  20 :   0.1667 0.1667-0.1667  plane waves:     313
 k-point  21 :   0.3333 0.1667 0.3333  plane waves:     313
 k-point  22 :   0.1667 0.3333 0.0000  plane waves:     313
 k-point  23 :   0.1667-0.1667-0.1667  plane waves:     313
 k-point  24 :   0.3333 0.3333 0.1667  plane waves:     313
 k-point  25 :   0.0000 0.1667 0.3333  plane waves:     313
 k-point  26 :  -0.1667 0.1667-0.1667  plane waves:     313
 k-point  27 :   0.1667 0.3333 0.3333  plane waves:     313
 k-point  28 :   0.3333 0.0000 0.1667  plane waves:     313
 k-point  29 :   0.5000 0.1667 0.0000  plane waves:     307
 k-point  30 :   0.0000 0.5000 0.1667  plane waves:     307
 k-point  31 :   0.1667 0.0000 0.5000  plane waves:     307
 k-point  32 :   0.1667 0.1667-0.3333  plane waves:     307
 k-point  33 :   0.5000 0.3333 0.5000  plane waves:     307
 k-point  34 :   0.1667 0.5000 0.0000  plane waves:     307
 k-point  35 :   0.3333-0.1667-0.1667  plane waves:     307
 k-point  36 :   0.5000 0.5000 0.3333  plane waves:     307
 k-point  37 :   0.0000 0.1667 0.5000  plane waves:     307
 k-point  38 :  -0.1667 0.3333-0.1667  plane waves:     307
 k-point  39 :   0.3333 0.5000 0.5000  plane waves:     307
 k-point  40 :   0.5000 0.0000 0.1667  plane waves:     307
 k-point  41 :  -0.3333 0.1667 0.0000  plane waves:     308
 k-point  42 :   0.0000-0.3333 0.1667  plane waves:     308
 k-point  43 :   0.1667 0.0000-0.3333  plane waves:     308
 k-point  44 :   0.1667 0.1667 0.5000  plane waves:     308
 k-point  45 :  -0.3333 0.5000-0.3333  plane waves:     308
 k-point  46 :   0.1667-0.3333 0.0000  plane waves:     308
 k-point  47 :   0.5000-0.1667-0.1667  plane waves:     308
 k-point  48 :  -0.3333-0.3333 0.5000  plane waves:     308
 k-point  49 :   0.0000 0.1667-0.3333  plane waves:     308
 k-point  50 :  -0.1667 0.5000-0.1667  plane waves:     308
 k-point  51 :   0.5000-0.3333-0.3333  plane waves:     308
 k-point  52 :  -0.3333 0.0000 0.1667  plane waves:     308
 k-point  53 :  -0.1667 0.1667 0.0000  plane waves:     311
 k-point  54 :   0.0000-0.1667 0.1667  plane waves:     311
 k-point  55 :   0.1667 0.0000-0.1667  plane waves:     311
 k-point  56 :   0.1667 0.1667 0.3333  plane waves:     311
 k-point  57 :  -0.1667-0.3333-0.1667  plane waves:     311
 k-point  58 :  -0.3333-0.1667-0.1667  plane waves:     311
 k-point  59 :   0.3333 0.3333 0.0000  plane waves:     310
 k-point  60 :   0.0000 0.3333 0.3333  plane waves:     310
 k-point  61 :   0.3333 0.0000 0.3333  plane waves:     310
 k-point  62 :   0.5000 0.3333 0.0000  plane waves:     311
 k-point  63 :   0.0000 0.5000 0.3333  plane waves:     311
 k-point  64 :   0.3333 0.0000 0.5000  plane waves:     311
 k-point  65 :   0.3333 0.3333-0.1667  plane waves:     311
 k-point  66 :   0.5000 0.1667 0.5000  plane waves:     311
 k-point  67 :   0.3333 0.5000 0.0000  plane waves:     311
 k-point  68 :   0.1667-0.3333-0.3333  plane waves:     311
 k-point  69 :   0.5000 0.5000 0.1667  plane waves:     311
 k-point  70 :   0.0000 0.3333 0.5000  plane waves:     311
 k-point  71 :  -0.3333 0.1667-0.3333  plane waves:     311
 k-point  72 :   0.1667 0.5000 0.5000  plane waves:     311
 k-point  73 :   0.5000 0.0000 0.3333  plane waves:     311
 k-point  74 :  -0.3333 0.3333 0.0000  plane waves:     309
 k-point  75 :   0.0000-0.3333 0.3333  plane waves:     309
 k-point  76 :   0.3333 0.0000-0.3333  plane waves:     309
 k-point  77 :   0.3333 0.3333-0.3333  plane waves:     309
 k-point  78 :  -0.3333 0.3333-0.3333  plane waves:     309
 k-point  79 :   0.3333-0.3333-0.3333  plane waves:     309
 k-point  80 :   0.5000 0.5000 0.0000  plane waves:     302
 k-point  81 :   0.0000 0.5000 0.5000  plane waves:     302
 k-point  82 :   0.5000 0.0000 0.5000  plane waves:     302
 k-point  83 :   0.5000 0.3333 0.1667  plane waves:     311
 k-point  84 :   0.1667 0.5000 0.3333  plane waves:     311
 k-point  85 :   0.3333 0.1667 0.5000  plane waves:     311
 k-point  86 :   0.3333 0.1667-0.1667  plane waves:     311
 k-point  87 :   0.5000 0.1667 0.3333  plane waves:     311
 k-point  88 :   0.1667-0.3333-0.1667  plane waves:     311
 k-point  89 :   0.1667 0.3333-0.1667  plane waves:     311
 k-point  90 :   0.1667-0.1667-0.3333  plane waves:     311
 k-point  91 :   0.3333 0.5000 0.1667  plane waves:     311
 k-point  92 :  -0.1667 0.1667-0.3333  plane waves:     311
 k-point  93 :  -0.3333 0.1667-0.1667  plane waves:     311
 k-point  94 :   0.1667 0.3333 0.5000  plane waves:     311
 k-point  95 :  -0.3333 0.3333 0.1667  plane waves:     312
 k-point  96 :   0.1667-0.3333 0.3333  plane waves:     312
 k-point  97 :   0.3333 0.1667-0.3333  plane waves:     312
 k-point  98 :  -0.3333 0.3333 0.5000  plane waves:     312
 k-point  99 :   0.1667 0.5000-0.1667  plane waves:     312
 k-point 100 :   0.3333-0.1667-0.3333  plane waves:     312
 k-point 101 :   0.5000-0.3333 0.3333  plane waves:     312
 k-point 102 :  -0.1667 0.1667 0.5000  plane waves:     312
 k-point 103 :  -0.3333 0.3333-0.1667  plane waves:     312
 k-point 104 :   0.3333 0.5000-0.3333  plane waves:     312
 k-point 105 :   0.5000-0.1667 0.1667  plane waves:     312
 k-point 106 :  -0.1667-0.3333 0.3333  plane waves:     312
 k-point 107 :  -0.3333 0.5000 0.1667  plane waves:     308
 k-point 108 :   0.1667-0.3333 0.5000  plane waves:     308
 k-point 109 :   0.5000 0.1667-0.3333  plane waves:     308
 k-point 110 :   0.5000 0.3333-0.1667  plane waves:     308
 k-point 111 :  -0.3333 0.1667 0.5000  plane waves:     308
 k-point 112 :   0.1667 0.5000-0.3333  plane waves:     308

 maximum and minimum number of plane-waves per node :        92       65

 maximum number of plane-waves:       331
 maximum index in each direction: 
   IXMAX=    5   IYMAX=    5   IZMAX=    5
   IXMIN=   -5   IYMIN=   -5   IZMIN=   -5


 parallel 3D FFT for wavefunctions:
    minimum data exchange during FFTs selected (reduces bandwidth)
 parallel 3D FFT for charge:
    minimum data exchange during FFTs selected (reduces bandwidth)


 total amount of memory used by VASP MPI-rank0    32121. kBytes
=======================================================================

   base      :      30000. kBytes
   nonl-proj :       1356. kBytes
   fftplans  :         80. kBytes
   grid      :        111. kBytes
   one-center:         15. kBytes
   wavefun   :        559. kBytes
 
     INWAV:  cpu time    0.0000: real time    0.0000
 Broyden mixing: mesh for mixing (old mesh)
   NGX =  9   NGY =  9   NGZ =  9
  (NGX  = 28   NGY  = 28   NGZ  = 28)
  gives a total of    729 points

 initial charge density was supplied:
 charge density of overlapping atoms calculated
 number of electron      10.0000000 magnetization 
 keeping initial charge density in first step


--------------------------------------------------------------------------------------------------------


 Maximum index for augmentation-charges           674 (set IRDMAX)


--------------------------------------------------------------------------------------------------------


 First call to EWALD:  gamma=   0.706
 Maximum number of real-space cells 3x 3x 3
 Maximum number of reciprocal cells 3x 3x 3

    FEWALD:  cpu time    0.0012: real time    0.0012


--------------------------------------- Iteration      1(   1)  ---------------------------------------


    POTLOK:  cpu time    0.0037: real time    0.0037
    SETDIJ:  cpu time    0.0063: real time    0.0063
     EDDAV:  cpu time    0.4577: real time    0.4584
       DOS:  cpu time    0.0015: real time    0.0015
    --------------------------------------------
      LOOP:  cpu time    0.4692: real time    0.4700

 eigenvalue-minimisations  :  2872
 total energy-change (2. order) : 0.3438579E+02  (-0.4605978E+03)
 number of electron      10.0000000 magnetization 
 augmentation part       10.0000000 magnetization 

 Free energy of the ion-electron system (eV)
  ---------------------------------------------------
  alpha Z        PSCENC =        60.02392767
  Ewald energy   TEWEN  =      -828.08934173
  -Hartree energ DENC   =       -75.88889407
  -exchange      EXHF   =         0.00000000
  -V(xc)+E(xc)   XCENC  =         3.32728645
  PAW double counting   =       696.70595042     -667.45827301
  entropy T*S    EENTRO =        -0.00103188
  eigenvalues    EBANDS =       117.44695308
  atomic energy  EATOM  =       728.31920932
  Solvation  Ediel_sol  =         0.00000000
  ---------------------------------------------------
  free energy    TOTEN  =        34.38578626 eV

  energy without entropy =       34.38681814  energy(sigma->0) =       34.38630220


--------------------------------------------------------------------------------------------------------




--------------------------------------- Iteration      1(   2)  ---------------------------------------


     EDDAV:  cpu time    0.4833: real time    0.4840
       DOS:  cpu time    0.0014: real time    0.0014
    --------------------------------------------
      LOOP:  cpu time    0.4847: real time    0.4854

 eigenvalue-minimisations  :  3228
 total energy-change (2. order) :-0.3977529E+02  (-0.3775970E+02)
 number of electron      10.0000000 magnetization 
 augmentation part       10.0000000 magnetization 

 Free energy of the ion-electron system (eV)
  ---------------------------------------------------
  alpha Z        PSCENC =        60.02392767
  Ewald energy   TEWEN  =      -828.08934173
  -Hartree energ DENC   =       -75.88889407
  -exchange      EXHF   =         0.00000000
  -V(xc)+E(xc)   XCENC  =         3.32728645
  PAW double counting   =       696.70595042     -667.45827301
  entropy T*S    EENTRO =        -0.00170593
  eigenvalues    EBANDS =        77.67233314
  atomic energy  EATOM  =       728.31920932
  Solvation  Ediel_sol  =         0.00000000
  ---------------------------------------------------
  free energy    TOTEN  =        -5.38950773 eV

  energy without entropy =       -5.38780180  energy(sigma->0) =       -5.38865476


--------------------------------------------------------------------------------------------------------




--------------------------------------- Iteration      1(   3)  ---------------------------------------


     EDDAV:  cpu time    0.4981: real time    0.5011
       DOS:  cpu time    0.0015: real time    0.0015
    --------------------------------------------
      LOOP:  cpu time    0.4996: real time    0.5026

 eigenvalue-minimisations  :  3304
 total energy-change (2. order) :-0.5160187E+00  (-0.5146906E+00)
 number of electron      10.0000000 magnetization 
 augmentation part       10.0000000 magnetization 

 Free energy of the ion-electron system (eV)
  ---------------------------------------------------
  alpha Z        PSCENC =        60.02392767
  Ewald energy   TEWEN  =      -828.08934173
  -Hartree energ DENC   =       -75.88889407
  -exchange      EXHF   =         0.00000000
  -V(xc)+E(xc)   XCENC  =         3.32728645
  PAW double counting   =       696.70595042     -667.45827301
  entropy T*S    EENTRO =        -0.00190266
  eigenvalues    EBANDS =        77.15651122
  atomic energy  EATOM  =       728.31920932
  Solvation  Ediel_sol  =         0.00000000
  ---------------------------------------------------
  free energy    TOTEN  =        -5.90552638 eV

  energy without entropy =       -5.90362373  energy(sigma->0) =       -5.90457505


--------------------------------------------------------------------------------------------------------




--------------------------------------- Iteration      1(   4)  ---------------------------------------


     EDDAV:  cpu time    0.4955: real time    0.4990
       DOS:  cpu time    0.0015: real time    0.0015
    --------------------------------------------
      LOOP:  cpu time    0.4970: real time    0.5005

 eigenvalue-minimisations  :  3328
 total energy-change (2. order) :-0.2109205E-02  (-0.2108990E-02)
 number of electron      10.0000000 magnetization 
 augmentation part       10.0000000 magnetization 

 Free energy of the ion-electron system (eV)
  ---------------------------------------------------
  alpha Z        PSCENC =        60.02392767
  Ewald energy   TEWEN  =      -828.08934173
  -Hartree energ DENC   =       -75.88889407
  -exchange      EXHF   =         0.00000000
  -V(xc)+E(xc)   XCENC  =         3.32728645
  PAW double counting   =       696.70595042     -667.45827301
  entropy T*S    EENTRO =        -0.00189657
  eigenvalues    EBANDS =        77.15439592
  atomic energy  EATOM  =       728.31920932
  Solvation  Ediel_sol  =         0.00000000
  ---------------------------------------------------
  free energy    TOTEN  =        -5.90763559 eV

  energy without entropy =       -5.90573902  energy(sigma->0) =       -5.90668730


--------------------------------------------------------------------------------------------------------




--------------------------------------- Iteration      1(   5)  ---------------------------------------


     EDDAV:  cpu time    0.4981: real time    0.5040
       DOS:  cpu time    0.0015: real time    0.0015
    CHARGE:  cpu time    0.0073: real time    0.0073
    MIXING:  cpu time    0.0003: real time    0.0003
    --------------------------------------------
      LOOP:  cpu time    0.5072: real time    0.5131

 eigenvalue-minimisations  :  3352
 total energy-change (2. order) :-0.1736956E-04  (-0.1736871E-04)
 number of electron       9.9999988 magnetization 
 augmentation part        2.9348784 magnetization 

 Broyden mixing:
  rms(total) = 0.10686E+01    rms(broyden)= 0.10686E+01
  rms(prec ) = 0.17855E+01
  weight for this iteration     100.00

 Free energy of the ion-electron system (eV)
  ---------------------------------------------------
  alpha Z        PSCENC =        60.02392767
  Ewald energy   TEWEN  =      -828.08934173
  -Hartree energ DENC   =       -75.88889407
  -exchange      EXHF   =         0.00000000
  -V(xc)+E(xc)   XCENC  =         3.32728645
  PAW double counting   =       696.70595042     -667.45827301
  entropy T*S    EENTRO =        -0.00189650
  eigenvalues    EBANDS =        77.15437849
  atomic energy  EATOM  =       728.31920932
  Solvation  Ediel_sol  =         0.00000000
  ---------------------------------------------------
  free energy    TOTEN  =        -5.90765296 eV

  energy without entropy =       -5.90575646  energy(sigma->0) =       -5.90670471


--------------------------------------------------------------------------------------------------------




--------------------------------------- Iteration      1(   6)  ---------------------------------------


    POTLOK:  cpu time    0.0034: real time    0.0034
    SETDIJ:  cpu time    0.0041: real time    0.0041
     EDDAV:  cpu time    0.4605: real time    0.4618
       DOS:  cpu time    0.0015: real time    0.0015
    CHARGE:  cpu time    0.0069: real time    0.0069
    MIXING:  cpu time    0.0003: real time    0.0003
    --------------------------------------------
      LOOP:  cpu time    0.4769: real time    0.4781

 eigenvalue-minimisations  :  3000
 total energy-change (2. order) : 0.3162537E+00  (-0.6793445E-01)
 number of electron       9.9999987 magnetization 
 augmentation part        3.0533395 magnetization 

 Broyden mixing:
  rms(total) = 0.56970E+00    rms(broyden)= 0.56970E+00
  rms(prec ) = 0.72979E+00
  weight for this iteration     100.00

 eigenvalues of (default mixing * dielectric matrix)
  average eigenvalue GAMMA=   1.9867
  1.9867

 Free energy of the ion-electron system (eV)
  ---------------------------------------------------
  alpha Z        PSCENC =        60.02392767
  Ewald energy   TEWEN  =      -828.08934173
  -Hartree energ DENC   =       -69.01016856
  -exchange      EXHF   =         0.00000000
  -V(xc)+E(xc)   XCENC  =         3.10438287
  PAW double counting   =       775.06670248     -747.27500136
  entropy T*S    EENTRO =        -0.00225943
  eigenvalues    EBANDS =        72.27114947
  atomic energy  EATOM  =       728.31920932
  Solvation  Ediel_sol  =         0.00000000
  ---------------------------------------------------
  free energy    TOTEN  =        -5.59139926 eV

  energy without entropy =       -5.58913983  energy(sigma->0) =       -5.59026955


--------------------------------------------------------------------------------------------------------




--------------------------------------- Iteration      1(   7)  ---------------------------------------


    POTLOK:  cpu time    0.0033: real time    0.0033
    SETDIJ:  cpu time    0.0036: real time    0.0037
     EDDAV:  cpu time    0.4713: real time    0.4746
       DOS:  cpu time    0.0015: real time    0.0015
    CHARGE:  cpu time    0.0065: real time    0.0065
    MIXING:  cpu time    0.0004: real time    0.0004
    --------------------------------------------
      LOOP:  cpu time    0.4866: real time    0.4899

 eigenvalue-minimisations  :  3152
 total energy-change (2. order) : 0.3531847E-01  (-0.1334573E-01)
 number of electron       9.9999987 magnetization 
 augmentation part        3.1062709 magnetization 

 Broyden mixing:
  rms(total) = 0.22836E+00    rms(broyden)= 0.22836E+00
  rms(prec ) = 0.23250E+00
  weight for this iteration     100.00

 eigenvalues of (default mixing * dielectric matrix)
  average eigenvalue GAMMA=   2.2072
  1.3702  3.0441

 Free energy of the ion-electron system (eV)
  ---------------------------------------------------
  alpha Z        PSCENC =        60.02392767
  Ewald energy   TEWEN  =      -828.08934173
  -Hartree energ DENC   =       -65.71225221
  -exchange      EXHF   =         0.00000000
  -V(xc)+E(xc)   XCENC  =         3.00063079
  PAW double counting   =       849.42703000     -822.67422749
  entropy T*S    EENTRO =        -0.00225236
  eigenvalues    EBANDS =        70.15119522
  atomic energy  EATOM  =       728.31920932
  Solvation  Ediel_sol  =         0.00000000
  ---------------------------------------------------
  free energy    TOTEN  =        -5.55608079 eV

  energy without entropy =       -5.55382843  energy(sigma->0) =       -5.55495461


--------------------------------------------------------------------------------------------------------




--------------------------------------- Iteration      1(   8)  ---------------------------------------


    POTLOK:  cpu time    0.0031: real time    0.0031
    SETDIJ:  cpu time    0.0036: real time    0.0036
     EDDAV:  cpu time    0.4457: real time    0.4493
       DOS:  cpu time    0.0015: real time    0.0015
    CHARGE:  cpu time    0.0066: real time    0.0066
    MIXING:  cpu time    0.0002: real time    0.0003
    --------------------------------------------
      LOOP:  cpu time    0.4608: real time    0.4644

 eigenvalue-minimisations  :  2916
 total energy-change (2. order) : 0.2438918E-02  (-0.4696865E-03)
 number of electron       9.9999987 magnetization 
 augmentation part        3.1004791 magnetization 

 Broyden mixing:
  rms(total) = 0.60898E-01    rms(broyden)= 0.60898E-01
  rms(prec ) = 0.61219E-01
  weight for this iteration     100.00

 eigenvalues of (default mixing * dielectric matrix)
  average eigenvalue GAMMA=   1.5979
  2.6148  1.3643  0.8145

 Free energy of the ion-electron system (eV)
  ---------------------------------------------------
  alpha Z        PSCENC =        60.02392767
  Ewald energy   TEWEN  =      -828.08934173
  -Hartree energ DENC   =       -65.43846230
  -exchange      EXHF   =         0.00000000
  -V(xc)+E(xc)   XCENC  =         2.99103586
  PAW double counting   =       907.00681377     -880.82240924
  entropy T*S    EENTRO =        -0.00222124
  eigenvalues    EBANDS =        70.45780602
  atomic energy  EATOM  =       728.31920932
  Solvation  Ediel_sol  =         0.00000000
  ---------------------------------------------------
  free energy    TOTEN  =        -5.55364187 eV

  energy without entropy =       -5.55142063  energy(sigma->0) =       -5.55253125


--------------------------------------------------------------------------------------------------------




--------------------------------------- Iteration      1(   9)  ---------------------------------------


    POTLOK:  cpu time    0.0032: real time    0.0032
    SETDIJ:  cpu time    0.0037: real time    0.0037
     EDDAV:  cpu time    0.4606: real time    0.4664
       DOS:  cpu time    0.0016: real time    0.0016
    CHARGE:  cpu time    0.0066: real time    0.0066
    MIXING:  cpu time    0.0004: real time    0.0004
    --------------------------------------------
      LOOP:  cpu time    0.4760: real time    0.4819

 eigenvalue-minimisations  :  3048
 total energy-change (2. order) : 0.2384113E-03  (-0.1163615E-04)
 number of electron       9.9999987 magnetization 
 augmentation part        3.1015353 magnetization 

 Broyden mixing:
  rms(total) = 0.78815E-02    rms(broyden)= 0.78814E-02
  rms(prec ) = 0.81767E-02
  weight for this iteration     100.00

 eigenvalues of (default mixing * dielectric matrix)
  average eigenvalue GAMMA=   1.9832
  0.9914  1.3470  3.0255  2.5690

 Free energy of the ion-electron system (eV)
  ---------------------------------------------------
  alpha Z        PSCENC =        60.02392767
  Ewald energy   TEWEN  =      -828.08934173
  -Hartree energ DENC   =       -65.49811900
  -exchange      EXHF   =         0.00000000
  -V(xc)+E(xc)   XCENC  =         2.99309346
  PAW double counting   =       896.74856236     -870.44948864
  entropy T*S    EENTRO =        -0.00222805
  eigenvalues    EBANDS =        70.40098115
  atomic energy  EATOM  =       728.31920932
  Solvation  Ediel_sol  =         0.00000000
  ---------------------------------------------------
  free energy    TOTEN  =        -5.55340346 eV

  energy without entropy =       -5.55117541  energy(sigma->0) =       -5.55228943


--------------------------------------------------------------------------------------------------------




--------------------------------------- Iteration      1(  10)  ---------------------------------------


    POTLOK:  cpu time    0.0034: real time    0.0034
    SETDIJ:  cpu time    0.0038: real time    0.0038
     EDDAV:  cpu time    0.3270: real time    0.3315
       DOS:  cpu time    0.0016: real time    0.0016
    --------------------------------------------
      LOOP:  cpu time    0.3358: real time    0.3403

 eigenvalue-minimisations  :  1508
 total energy-change (2. order) : 0.3603169E-06  (-0.5201829E-06)
 number of electron       9.9999987 magnetization 
 augmentation part        3.1015353 magnetization 

 Free energy of the ion-electron system (eV)
  ---------------------------------------------------
  alpha Z        PSCENC =        60.02392767
  Ewald energy   TEWEN  =      -828.08934173
  -Hartree energ DENC   =       -65.50919908
  -exchange      EXHF   =         0.00000000
  -V(xc)+E(xc)   XCENC  =         2.99346518
  PAW double counting   =       896.79673315     -870.46953720
  entropy T*S    EENTRO =        -0.00222609
  eigenvalues    EBANDS =        70.38356567
  atomic energy  EATOM  =       728.31920932
  Solvation  Ediel_sol  =         0.00000000
  ---------------------------------------------------
  free energy    TOTEN  =        -5.55340310 eV

  energy without entropy =       -5.55117701  energy(sigma->0) =       -5.55229005


--------------------------------------------------------------------------------------------------------




 average (electrostatic) potential at core
  the test charge radii are     1.2059
  (the norm of the test charge is              1.0000)
       1 -63.6983
 
 
 
 E-fermi :  10.4126     XC(G=0): -13.1473     alpha+bet :-15.8213

 Fermi energy:        10.4125666868

 k-point     1 :       0.0000    0.0000    0.0000
  band No.  band energies     occupation 
      1       0.7874      2.00000
      2       6.9029      2.00000
      3       6.9029      2.00000
      4       6.9029      2.00000
      5       8.8817      2.00000
      6       8.8817      2.00000
      7      25.1820      0.00000
      8      29.8899      0.00000
      9      29.8900      0.00000
     10      29.8900      0.00000
     11      35.0536      0.00000
     12      41.4970      0.00000

 k-point     2 :       0.1667    0.0000    0.0000
  band No.  band energies     occupation 
      1       1.7884      2.00000
      2       6.5773      2.00000
      3       7.2064      2.00000
      4       7.2065      2.00000
      5       8.7913      2.00000
      6       8.7913      2.00000
      7      26.1110      0.00000
      8      26.5229      0.00000
      9      31.3574      0.00000
     10      31.3575      0.00000
     11      34.7460      0.00000
     12      37.3046      0.00000

 k-point     3 :       0.0000    0.1667    0.0000
  band No.  band energies     occupation 
      1       1.7884      2.00000
      2       6.5773      2.00000
      3       7.2064      2.00000
      4       7.2065      2.00000
      5       8.7913      2.00000
      6       8.7913      2.00000
      7      26.1111      0.00000
      8      26.5229      0.00000
      9      31.3574      0.00000
     10      31.3575      0.00000
     11      34.7460      0.00000
     12      37.3046      0.00000

 k-point     4 :       0.0000    0.0000    0.1667
  band No.  band energies     occupation 
      1       1.7884      2.00000
      2       6.5773      2.00000
      3       7.2064      2.00000
      4       7.2065      2.00000
      5       8.7913      2.00000
      6       8.7913      2.00000
      7      26.1111      0.00000
      8      26.5229      0.00000
      9      31.3574      0.00000
     10      31.3575      0.00000
     11      34.7460      0.00000
     12      37.3046      0.00000

 k-point     5 :       0.1667    0.1667    0.1667
  band No.  band energies     occupation 
      1       1.7884      2.00000
      2       6.5772      2.00000
      3       7.2064      2.00000
      4       7.2065      2.00000
      5       8.7913      2.00000
      6       8.7913      2.00000
      7      26.1110      0.00000
      8      26.5229      0.00000
      9      31.3575      0.00000
     10      31.3575      0.00000
     11      34.7460      0.00000
     12      37.3046      0.00000

 k-point     6 :       0.3333    0.0000    0.0000
  band No.  band energies     occupation 
      1       3.4196      2.00000
      2       7.0894      2.00000
      3       7.0895      2.00000
      4       7.4158      2.00000
      5       9.6253      2.00000
      6       9.6253      2.00000
      7      20.4022      0.00000
      8      25.8344      0.00000
      9      31.2906      0.00000
     10      31.2907      0.00000
     11      35.0618      0.00000
     12      35.6144      0.00000

 k-point     7 :       0.0000    0.3333    0.0000
  band No.  band energies     occupation 
      1       3.4196      2.00000
      2       7.0894      2.00000
      3       7.0895      2.00000
      4       7.4158      2.00000
      5       9.6253      2.00000
      6       9.6253      2.00000
      7      20.4022      0.00000
      8      25.8344      0.00000
      9      31.2906      0.00000
     10      31.2907      0.00000
     11      35.0618      0.00000
     12      35.6144      0.00000

 k-point     8 :       0.0000    0.0000    0.3333
  band No.  band energies     occupation 
      1       3.4196      2.00000
      2       7.0894      2.00000
      3       7.0895      2.00000
      4       7.4158      2.00000
      5       9.6253      2.00000
      6       9.6253      2.00000
      7      20.4022      0.00000
      8      25.8344      0.00000
      9      31.2906      0.00000
     10      31.2907      0.00000
     11      35.0618      0.00000
     12      35.6144      0.00000

 k-point     9 :       0.3333    0.3333    0.3333
  band No.  band energies     occupation 
      1       3.4196      2.00000
      2       7.0895      2.00000
      3       7.0895      2.00000
      4       7.4158      2.00000
      5       9.6253      2.00000
      6       9.6253      2.00000
      7      20.4022      0.00000
      8      25.8344      0.00000
      9      31.2906      0.00000
     10      31.2906      0.00000
     11      35.0617      0.00000
     12      35.6144      0.00000

 k-point    10 :       0.5000    0.0000    0.0000
  band No.  band energies     occupation 
      1       3.6042      2.00000
      2       6.8501      2.00000
      3       6.8502      2.00000
      4      10.1808      2.00000
      5      10.4118      1.01789
      6      10.4118      1.01753
      7      15.9036      0.00000
      8      24.7401      0.00000
      9      29.0855      0.00000
     10      29.0856      0.00000
     11      37.9807      0.00000
     12      37.9807      0.00000

 k-point    11 :       0.0000    0.5000    0.0000
  band No.  band energies     occupation 
      1       3.6042      2.00000
      2       6.8501      2.00000
      3       6.8502      2.00000
      4      10.1808      2.00000
      5      10.4118      1.01784
      6      10.4118      1.01752
      7      15.9036      0.00000
      8      24.7401      0.00000
      9      29.0855      0.00000
     10      29.0856      0.00000
     11      37.9807      0.00000
     12      37.9807      0.00000

 k-point    12 :       0.0000    0.0000    0.5000
  band No.  band energies     occupation 
      1       3.6042      2.00000
      2       6.8501      2.00000
      3       6.8502      2.00000
      4      10.1808      2.00000
      5      10.4118      1.01789
      6      10.4118      1.01751
      7      15.9036      0.00000
      8      24.7401      0.00000
      9      29.0855      0.00000
     10      29.0856      0.00000
     11      37.9807      0.00000
     12      37.9807      0.00000

 k-point    13 :       0.5000    0.5000    0.5000
  band No.  band energies     occupation 
      1       3.6042      2.00000
      2       6.8501      2.00000
      3       6.8502      2.00000
      4      10.1807      2.00000
      5      10.4118      1.01788
      6      10.4118      1.01780
      7      15.9036      0.00000
      8      24.7401      0.00000
      9      29.0856      0.00000
     10      29.0856      0.00000
     11      37.9808      0.00000
     12      37.9808      0.00000

 k-point    14 :       0.1667    0.1667    0.0000
  band No.  band energies     occupation 
      1       2.1348      2.00000
      2       6.1247      2.00000
      3       7.6049      2.00000
      4       7.6049      2.00000
      5       8.0566      2.00000
      6       9.2247      2.00000
      7      27.1519      0.00000
      8      28.0431      0.00000
      9      29.2601      0.00000
     10      29.2601      0.00000
     11      35.5195      0.00000
     12      36.7312      0.00000

 k-point    15 :       0.0000    0.1667    0.1667
  band No.  band energies     occupation 
      1       2.1348      2.00000
      2       6.1247      2.00000
      3       7.6049      2.00000
      4       7.6049      2.00000
      5       8.0565      2.00000
      6       9.2247      2.00000
      7      27.1519      0.00000
      8      28.0431      0.00000
      9      29.2601      0.00000
     10      29.2601      0.00000
     11      35.5195      0.00000
     12      36.7312      0.00000

 k-point    16 :       0.1667    0.0000    0.1667
  band No.  band energies     occupation 
      1       2.1348      2.00000
      2       6.1247      2.00000
      3       7.6049      2.00000
      4       7.6049      2.00000
      5       8.0565      2.00000
      6       9.2247      2.00000
      7      27.1519      0.00000
      8      28.0431      0.00000
      9      29.2601      0.00000
     10      29.2601      0.00000
     11      35.5195      0.00000
     12      36.7312      0.00000

 k-point    17 :       0.3333    0.1667    0.0000
  band No.  band energies     occupation 
      1       3.7940      2.00000
      2       5.8160      2.00000
      3       7.0131      2.00000
      4       7.9053      2.00000
      5       9.4323      2.00000
      6       9.8999      2.00000
      7      22.9129      0.00000
      8      27.3037      0.00000
      9      27.9090      0.00000
     10      29.9031      0.00000
     11      34.0941      0.00000
     12      36.2732      0.00000

 k-point    18 :       0.0000    0.3333    0.1667
  band No.  band energies     occupation 
      1       3.7940      2.00000
      2       5.8160      2.00000
      3       7.0131      2.00000
      4       7.9053      2.00000
      5       9.4323      2.00000
      6       9.8999      2.00000
      7      22.9129      0.00000
      8      27.3037      0.00000
      9      27.9090      0.00000
     10      29.9031      0.00000
     11      34.0941      0.00000
     12      36.2732      0.00000

 k-point    19 :       0.1667    0.0000    0.3333
  band No.  band energies     occupation 
      1       3.7940      2.00000
      2       5.8160      2.00000
      3       7.0131      2.00000
      4       7.9053      2.00000
      5       9.4323      2.00000
      6       9.8999      2.00000
      7      22.9129      0.00000
      8      27.3037      0.00000
      9      27.9090      0.00000
     10      29.9031      0.00000
     11      34.0941      0.00000
     12      36.2732      0.00000

 k-point    20 :       0.1667    0.1667   -0.1667
  band No.  band energies     occupation 
      1       3.7940      2.00000
      2       5.8160      2.00000
      3       7.0131      2.00000
      4       7.9053      2.00000
      5       9.4323      2.00000
      6       9.8999      2.00000
      7      22.9129      0.00000
      8      27.3037      0.00000
      9      27.9090      0.00000
     10      29.9031      0.00000
     11      34.0940      0.00000
     12      36.2732      0.00000

 k-point    21 :       0.3333    0.1667    0.3333
  band No.  band energies     occupation 
      1       3.7940      2.00000
      2       5.8160      2.00000
      3       7.0131      2.00000
      4       7.9053      2.00000
      5       9.4323      2.00000
      6       9.8999      2.00000
      7      22.9128      0.00000
      8      27.3037      0.00000
      9      27.9090      0.00000
     10      29.9031      0.00000
     11      34.0941      0.00000
     12      36.2732      0.00000

 k-point    22 :       0.1667    0.3333    0.0000
  band No.  band energies     occupation 
      1       3.7940      2.00000
      2       5.8160      2.00000
      3       7.0131      2.00000
      4       7.9053      2.00000
      5       9.4323      2.00000
      6       9.8999      2.00000
      7      22.9129      0.00000
      8      27.3037      0.00000
      9      27.9090      0.00000
     10      29.9031      0.00000
     11      34.0941      0.00000
     12      36.2732      0.00000

 k-point    23 :       0.1667   -0.1667   -0.1667
  band No.  band energies     occupation 
      1       3.7940      2.00000
      2       5.8160      2.00000
      3       7.0131      2.00000
      4       7.9053      2.00000
      5       9.4323      2.00000
      6       9.8999      2.00000
      7      22.9129      0.00000
      8      27.3037      0.00000
      9      27.9091      0.00000
     10      29.9031      0.00000
     11      34.0940      0.00000
     12      36.2732      0.00000

 k-point    24 :       0.3333    0.3333    0.1667
  band No.  band energies     occupation 
      1       3.7940      2.00000
      2       5.8160      2.00000
      3       7.0131      2.00000
      4       7.9053      2.00000
      5       9.4323      2.00000
      6       9.8999      2.00000
      7      22.9128      0.00000
      8      27.3037      0.00000
      9      27.9090      0.00000
     10      29.9031      0.00000
     11      34.0941      0.00000
     12      36.2732      0.00000

 k-point    25 :       0.0000    0.1667    0.3333
  band No.  band energies     occupation 
      1       3.7940      2.00000
      2       5.8160      2.00000
      3       7.0131      2.00000
      4       7.9053      2.00000
      5       9.4323      2.00000
      6       9.8999      2.00000
      7      22.9129      0.00000
      8      27.3037      0.00000
      9      27.9090      0.00000
     10      29.9031      0.00000
     11      34.0941      0.00000
     12      36.2732      0.00000

 k-point    26 :      -0.1667    0.1667   -0.1667
  band No.  band energies     occupation 
      1       3.7940      2.00000
      2       5.8160      2.00000
      3       7.0131      2.00000
      4       7.9053      2.00000
      5       9.4323      2.00000
      6       9.8999      2.00000
      7      22.9129      0.00000
      8      27.3037      0.00000
      9      27.9090      0.00000
     10      29.9031      0.00000
     11      34.0940      0.00000
     12      36.2732      0.00000

 k-point    27 :       0.1667    0.3333    0.3333
  band No.  band energies     occupation 
      1       3.7940      2.00000
      2       5.8160      2.00000
      3       7.0131      2.00000
      4       7.9053      2.00000
      5       9.4323      2.00000
      6       9.8999      2.00000
      7      22.9128      0.00000
      8      27.3037      0.00000
      9      27.9090      0.00000
     10      29.9031      0.00000
     11      34.0941      0.00000
     12      36.2732      0.00000

 k-point    28 :       0.3333    0.0000    0.1667
  band No.  band energies     occupation 
[...]
      5       9.5707      2.00000
      6      12.4418      0.00000
      7      21.0158      0.00000
      8      22.9859      0.00000
      9      26.0237      0.00000
     10      32.5406      0.00000
     11      32.5546      0.00000
     12      38.4449      0.00000

 k-point    93 :      -0.3333    0.1667   -0.1667
  band No.  band energies     occupation 
      1       5.1974      2.00000
      2       5.5869      2.00000
      3       6.5018      2.00000
      4       9.0815      2.00000
      5       9.5707      2.00000
      6      12.4417      0.00000
      7      21.0158      0.00000
      8      22.9859      0.00000
      9      26.0238      0.00000
     10      32.5406      0.00000
     11      32.5546      0.00000
     12      38.4449      0.00000

 k-point    94 :       0.1667    0.3333    0.5000
  band No.  band energies     occupation 
      1       5.1974      2.00000
      2       5.5869      2.00000
      3       6.5017      2.00000
      4       9.0815      2.00000
      5       9.5707      2.00000
      6      12.4417      0.00000
      7      21.0158      0.00000
      8      22.9859      0.00000
      9      26.0238      0.00000
     10      32.5407      0.00000
     11      32.5546      0.00000
     12      38.4450      0.00000

 k-point    95 :      -0.3333    0.3333    0.1667
  band No.  band energies     occupation 
      1       5.5376      2.00000
      2       5.6530      2.00000
      3       6.7603      2.00000
      4       8.5785      2.00000
      5      10.3989      1.99999
      6      15.9821      0.00000
      7      16.4705      0.00000
      8      22.5143      0.00000
      9      24.2913      0.00000
     10      31.1910      0.00000
     11      35.4460      0.00000
     12      40.2549      0.00000

 k-point    96 :       0.1667   -0.3333    0.3333
  band No.  band energies     occupation 
      1       5.5376      2.00000
      2       5.6530      2.00000
      3       6.7603      2.00000
      4       8.5785      2.00000
      5      10.3989      1.99999
      6      15.9821      0.00000
      7      16.4705      0.00000
      8      22.5143      0.00000
      9      24.2912      0.00000
     10      31.1910      0.00000
     11      35.4460      0.00000
     12      40.2549      0.00000

 k-point    97 :       0.3333    0.1667   -0.3333
  band No.  band energies     occupation 
      1       5.5376      2.00000
      2       5.6530      2.00000
      3       6.7603      2.00000
      4       8.5785      2.00000
      5      10.3989      1.99999
      6      15.9821      0.00000
      7      16.4705      0.00000
      8      22.5143      0.00000
      9      24.2912      0.00000
     10      31.1910      0.00000
     11      35.4460      0.00000
     12      40.2549      0.00000

 k-point    98 :      -0.3333    0.3333    0.5000
  band No.  band energies     occupation 
      1       5.5376      2.00000
      2       5.6530      2.00000
      3       6.7602      2.00000
      4       8.5785      2.00000
      5      10.3988      1.99999
      6      15.9820      0.00000
      7      16.4705      0.00000
      8      22.5144      0.00000
      9      24.2913      0.00000
     10      31.1911      0.00000
     11      35.4460      0.00000
     12      40.2550      0.00000

 k-point    99 :       0.1667    0.5000   -0.1667
  band No.  band energies     occupation 
      1       5.5376      2.00000
      2       5.6530      2.00000
      3       6.7602      2.00000
      4       8.5784      2.00000
      5      10.3989      1.99999
      6      15.9821      0.00000
      7      16.4706      0.00000
      8      22.5143      0.00000
      9      24.2912      0.00000
     10      31.1909      0.00000
     11      35.4460      0.00000
     12      40.2548      0.00000

 k-point   100 :       0.3333   -0.1667   -0.3333
  band No.  band energies     occupation 
      1       5.5376      2.00000
      2       5.6530      2.00000
      3       6.7603      2.00000
      4       8.5785      2.00000
      5      10.3989      1.99999
      6      15.9821      0.00000
      7      16.4705      0.00000
      8      22.5143      0.00000
      9      24.2913      0.00000
     10      31.1910      0.00000
     11      35.4460      0.00000
     12      40.2549      0.00000

 k-point   101 :       0.5000   -0.3333    0.3333
  band No.  band energies     occupation 
      1       5.5376      2.00000
      2       5.6530      2.00000
      3       6.7602      2.00000
      4       8.5785      2.00000
      5      10.3988      1.99999
      6      15.9820      0.00000
      7      16.4705      0.00000
      8      22.5144      0.00000
      9      24.2913      0.00000
     10      31.1911      0.00000
     11      35.4460      0.00000
     12      40.2550      0.00000

 k-point   102 :      -0.1667    0.1667    0.5000
  band No.  band energies     occupation 
      1       5.5376      2.00000
      2       5.6530      2.00000
      3       6.7602      2.00000
      4       8.5784      2.00000
      5      10.3989      1.99999
      6      15.9821      0.00000
      7      16.4706      0.00000
      8      22.5143      0.00000
      9      24.2912      0.00000
     10      31.1909      0.00000
     11      35.4460      0.00000
     12      40.2548      0.00000

 k-point   103 :      -0.3333    0.3333   -0.1667
  band No.  band energies     occupation 
      1       5.5376      2.00000
      2       5.6530      2.00000
      3       6.7603      2.00000
      4       8.5785      2.00000
      5      10.3989      1.99999
      6      15.9821      0.00000
      7      16.4705      0.00000
      8      22.5143      0.00000
      9      24.2912      0.00000
     10      31.1910      0.00000
     11      35.4460      0.00000
     12      40.2549      0.00000

 k-point   104 :       0.3333    0.5000   -0.3333
  band No.  band energies     occupation 
      1       5.5376      2.00000
      2       5.6530      2.00000
      3       6.7602      2.00000
      4       8.5785      2.00000
      5      10.3988      1.99999
      6      15.9820      0.00000
      7      16.4705      0.00000
      8      22.5144      0.00000
      9      24.2913      0.00000
     10      31.1911      0.00000
     11      35.4460      0.00000
     12      40.2550      0.00000

 k-point   105 :       0.5000   -0.1667    0.1667
  band No.  band energies     occupation 
      1       5.5376      2.00000
      2       5.6530      2.00000
      3       6.7602      2.00000
      4       8.5784      2.00000
      5      10.3989      1.99999
      6      15.9821      0.00000
      7      16.4706      0.00000
      8      22.5143      0.00000
      9      24.2912      0.00000
     10      31.1909      0.00000
     11      35.4460      0.00000
     12      40.2548      0.00000

 k-point   106 :      -0.1667   -0.3333    0.3333
  band No.  band energies     occupation 
      1       5.5376      2.00000
      2       5.6530      2.00000
      3       6.7603      2.00000
      4       8.5785      2.00000
      5      10.3989      1.99999
      6      15.9821      0.00000
      7      16.4705      0.00000
      8      22.5143      0.00000
      9      24.2912      0.00000
     10      31.1910      0.00000
     11      35.4460      0.00000
     12      40.2549      0.00000

 k-point   107 :      -0.3333    0.5000    0.1667
  band No.  band energies     occupation 
      1       4.8278      2.00000
      2       5.2275      2.00000
      3       7.7395      2.00000
      4       9.2612      2.00000
      5      10.9755      0.00000
      6      16.4474      0.00000
      7      17.7059      0.00000
      8      20.4357      0.00000
      9      22.2363      0.00000
     10      33.5868      0.00000
     11      34.4766      0.00000
     12      36.6282      0.00000

 k-point   108 :       0.1667   -0.3333    0.5000
  band No.  band energies     occupation 
      1       4.8278      2.00000
      2       5.2275      2.00000
      3       7.7395      2.00000
      4       9.2612      2.00000
      5      10.9755      0.00000
      6      16.4474      0.00000
      7      17.7059      0.00000
      8      20.4357      0.00000
      9      22.2363      0.00000
     10      33.5868      0.00000
     11      34.4766      0.00000
     12      36.6282      0.00000

 k-point   109 :       0.5000    0.1667   -0.3333
  band No.  band energies     occupation 
      1       4.8278      2.00000
      2       5.2275      2.00000
      3       7.7395      2.00000
      4       9.2612      2.00000
      5      10.9755      0.00000
      6      16.4474      0.00000
      7      17.7059      0.00000
      8      20.4357      0.00000
      9      22.2363      0.00000
     10      33.5868      0.00000
     11      34.4766      0.00000
     12      36.6282      0.00000

 k-point   110 :       0.5000    0.3333   -0.1667
  band No.  band energies     occupation 
      1       4.8278      2.00000
      2       5.2275      2.00000
      3       7.7395      2.00000
      4       9.2612      2.00000
      5      10.9755      0.00000
      6      16.4474      0.00000
      7      17.7059      0.00000
      8      20.4357      0.00000
      9      22.2363      0.00000
     10      33.5868      0.00000
     11      34.4766      0.00000
     12      36.6282      0.00000

 k-point   111 :      -0.3333    0.1667    0.5000
  band No.  band energies     occupation 
      1       4.8278      2.00000
      2       5.2275      2.00000
      3       7.7395      2.00000
      4       9.2612      2.00000
      5      10.9755      0.00000
      6      16.4474      0.00000
      7      17.7059      0.00000
      8      20.4357      0.00000
      9      22.2363      0.00000
     10      33.5868      0.00000
     11      34.4766      0.00000
     12      36.6282      0.00000

 k-point   112 :       0.1667    0.5000   -0.3333
  band No.  band energies     occupation 
      1       4.8278      2.00000
      2       5.2275      2.00000
      3       7.7395      2.00000
      4       9.2612      2.00000
      5      10.9755      0.00000
      6      16.4474      0.00000
      7      17.7059      0.00000
      8      20.4357      0.00000
      9      22.2363      0.00000
     10      33.5868      0.00000
     11      34.4766      0.00000
     12      36.6282      0.00000


--------------------------------------------------------------------------------------------------------


 soft charge-density along one line, spin component            1
         0         1         2         3         4         5         6         7         8         9
 total charge-density along one line
 
 pseudopotential strength for first ion, spin component:            1
 -2.641   0.000  -0.015   0.000   0.009  -2.850   0.000  -0.015
  0.000  -2.641   0.000  -0.017  -0.000   0.000  -2.850   0.000
 -0.015   0.000  -2.656   0.000  -0.005  -0.015   0.000  -2.865
  0.000  -0.017   0.000  -2.653   0.000   0.000  -0.017   0.000
  0.009  -0.000  -0.005   0.000  -2.662   0.008  -0.000  -0.005
 -2.850   0.000  -0.015   0.000   0.008  -3.041   0.000  -0.014
  0.000  -2.850   0.000  -0.017  -0.000   0.000  -3.041   0.000
 -0.015   0.000  -2.865   0.000  -0.005  -0.014   0.000  -3.055
  0.000  -0.017   0.000  -2.862   0.000   0.000  -0.016   0.000
  0.008  -0.000  -0.005   0.000  -2.871   0.008  -0.000  -0.005
 -0.000  -0.000  -0.000  -0.000  -0.000  -0.000  -0.000  -0.000
 -0.000  -0.000  -0.000  -0.000  -0.000  -0.000  -0.000  -0.000
 -0.000   0.000  -0.000   0.000   0.000  -0.000   0.000  -0.000
  0.000  -0.000  -0.000   0.000  -0.000   0.000  -0.000  -0.000
  0.000   0.000   0.000   0.000   0.000   0.000   0.000   0.000
 -0.000   0.000  -0.000   0.000   0.000  -0.000   0.000  -0.000
  0.000  -0.000  -0.000  -0.000  -0.000   0.000  -0.000  -0.000
  0.000   0.000   0.000   0.000   0.000   0.000   0.000   0.000
 total augmentation occupancy for first ion, spin component:            1
  4.535   0.000  -0.330   0.000   0.190  -2.919  -0.000   0.072  -0.000  -0.041   0.000   0.000   0.000  -0.000  -0.000  -0.000
  0.000   4.535  -0.000  -0.381  -0.000  -0.000  -2.919   0.000   0.083   0.000   0.000   0.000   0.000   0.000   0.000  -0.000
 -0.330  -0.000   4.199  -0.000  -0.117   0.072   0.000  -2.846   0.000   0.025   0.000   0.000  -0.000  -0.000   0.000   0.000
  0.000  -0.381  -0.000   4.266   0.000  -0.000   0.083   0.000  -2.861  -0.000   0.000   0.000   0.000  -0.000  -0.000  -0.000
  0.190  -0.000  -0.117   0.000   4.064  -0.041   0.000   0.025  -0.000  -2.817   0.000  -0.000   0.000   0.000   0.000  -0.000
 -2.919  -0.000   0.072  -0.000  -0.041   3.080   0.000   0.121   0.000  -0.070  -0.000   0.000  -0.000   0.000   0.000   0.000
 -0.000  -2.919   0.000   0.083   0.000   0.000   3.080   0.000   0.139  -0.000  -0.000   0.000  -0.000  -0.000   0.000   0.000
  0.072   0.000  -2.846   0.000   0.025   0.121   0.000   3.203   0.000   0.043  -0.000   0.000  -0.000  -0.000  -0.000   0.000
 -0.000   0.083   0.000  -2.861  -0.000   0.000   0.139   0.000   3.178   0.000  -0.000   0.000  -0.000   0.000   0.000   0.000
 -0.041   0.000   0.025  -0.000  -2.817  -0.070  -0.000   0.043   0.000   3.252  -0.000   0.000   0.000  -0.000   0.000  -0.000
  0.000   0.000   0.000   0.000   0.000  -0.000  -0.000  -0.000  -0.000  -0.000   2.567  -0.597   0.000  -0.000   0.000   0.000
  0.000   0.000   0.000   0.000  -0.000   0.000   0.000   0.000   0.000   0.000  -0.597   0.156  -0.000  -0.000  -0.000  -0.000
  0.000   0.000  -0.000   0.000   0.000  -0.000  -0.000  -0.000  -0.000   0.000   0.000  -0.000   0.297  -0.000  -0.000  -0.019
 -0.000   0.000  -0.000  -0.000   0.000   0.000  -0.000  -0.000   0.000  -0.000  -0.000  -0.000  -0.000   0.297  -0.000  -0.000
 -0.000   0.000   0.000  -0.000   0.000   0.000   0.000  -0.000   0.000   0.000   0.000  -0.000  -0.000  -0.000   0.297  -0.000
 -0.000  -0.000   0.000  -0.000  -0.000   0.000   0.000   0.000   0.000  -0.000   0.000  -0.000  -0.019  -0.000  -0.000   0.001
  0.000  -0.000   0.000   0.000  -0.000  -0.000   0.000   0.000  -0.000   0.000   0.000  -0.000  -0.000  -0.019  -0.000   0.000
  0.000  -0.000  -0.000   0.000  -0.000  -0.000  -0.000   0.000  -0.000  -0.000  -0.000   0.000  -0.000  -0.000  -0.019   0.000


------------------------ aborting loop because EDIFF is reached ----------------------------------------





 total charge

# of ion       s       p       d       tot
------------------------------------------
    1        0.622   0.572   7.994   9.188
 
    CHARGE:  cpu time    0.0064: real time    0.0065
    FORLOC:  cpu time    0.0001: real time    0.0001
    FORNL :  cpu time    0.0198: real time    0.0200
    STRESS:  cpu time    0.1890: real time    0.1908
    FORCOR:  cpu time    0.0029: real time    0.0029
    FORHAR:  cpu time    0.0008: real time    0.0008
    MIXING:  cpu time    0.0003: real time    0.0003
    OFIELD:  cpu time    0.0000: real time    0.0000

  FORCE on cell =-STRESS in cart. coord.  units (eV):
  Direction    XX          YY          ZZ          XY          YZ          ZX
  --------------------------------------------------------------------------------------
  Alpha Z    60.48878    60.48878    60.48878
  Ewald    -276.74026  -276.73982  -276.74149    -0.00043    -0.00083    -0.00117
  Hartree    21.60853    21.60866    21.60818    -0.00012    -0.00024    -0.00034
  E(xc)     -44.49341   -44.49342   -44.49337     0.00002     0.00003     0.00004
  Local      35.67989    35.67931    35.68159     0.00060     0.00112     0.00159
  n-local     5.61154     5.61159     5.61137    -0.00006    -0.00011    -0.00016
  augment    52.58780    52.58778    52.58782     0.00001     0.00002     0.00003
  Kinetic   145.24634   145.24628   145.24652     0.00006     0.00012     0.00017
  Fock        0.00000     0.00000     0.00000     0.00000     0.00000     0.00000
  -------------------------------------------------------------------------------------
  Total      -0.01079    -0.01084    -0.01060     0.00007     0.00012     0.00017
  in kB      -1.10051    -1.10495    -1.08069     0.00714     0.01201     0.01697
  external pressure =       -1.10 kB  Pullay stress =        0.00 kB


 VOLUME and BASIS-vectors are now :
 -----------------------------------------------------------------------------
  energy-cutoff  :      420.00
  volume of cell :       15.72
      direct lattice vectors                 reciprocal lattice vectors
     2.434861338  0.000004626  1.405781823     0.410701700 -0.145205729 -0.000000724
     0.811626098  2.295606389  1.405781892    -0.000000400  0.435615344 -0.000000742
     0.000006649  0.000004786  2.811542155    -0.205352220 -0.145205928  0.355677420

  length of vectors
     2.811542684  2.811541987  2.811542155     0.435615186  0.435615344  0.435615338


 FORCES acting on ions
    electron-ion (+dipol)            ewald-force                    non-local-force                 convergence-correction
 -----------------------------------------------------------------------------------------------
   0.219E-06 0.359E-06 0.586E-06   0.341E-15 -.350E-15 0.355E-15   -.183E-06 -.186E-06 -.400E-06   -.161E-06 -.241E-06 -.390E-06
 -----------------------------------------------------------------------------------------------
   0.219E-06 0.359E-06 0.586E-06   0.341E-15 -.350E-15 0.355E-15   -.183E-06 -.186E-06 -.400E-06   -.161E-06 -.241E-06 -.390E-06
 
 
 POSITION                                       TOTAL-FORCE (eV/Angst)
 -----------------------------------------------------------------------------------
     -0.00000     -0.00000     -0.00000        -0.000000     -0.000000     -0.000000
 -----------------------------------------------------------------------------------
    total drift:                               -0.000000     -0.000000     -0.000000


--------------------------------------------------------------------------------------------------------



  FREE ENERGIE OF THE ION-ELECTRON SYSTEM (eV)
  ---------------------------------------------------
  free  energy   TOTEN  =        -5.55414672 eV

  energy  without entropy=       -5.55194521  energy(sigma->0) =       -5.55304596
 
 d Force =-0.6348152E-13[-0.992E-13,-0.277E-13]  d Energy = 0.4328225E-02-0.433E-02
 d Force = 0.1250652E-21[ 0.817E-22, 0.168E-21]  d Ewald  =-0.5320359E+01 0.532E+01


--------------------------------------------------------------------------------------------------------


    POTLOK:  cpu time    0.0065: real time    0.0065


--------------------------------------------------------------------------------------------------------




--------------------------------------------------------------------------------------------------------


  
 reached required accuracy - stopping structural energy minimisation
     LOOP+:  cpu time    2.3852: real time    2.4554
    4ORBIT:  cpu time    0.0000: real time    0.0000



 total charge

# of ion       s       p       d       tot
------------------------------------------
    1        0.622   0.572   7.994   9.188
 

 total amount of memory used by VASP MPI-rank0    32121. kBytes
=======================================================================

   base      :      30000. kBytes
   nonl-proj :       1356. kBytes
   fftplans  :         80. kBytes
   grid      :        111. kBytes
   one-center:         15. kBytes
   wavefun   :        559. kBytes
 
  
  
 General timing and accounting informations for this job:
 ========================================================
  
                  Total CPU time used (sec):       10.921
                            User time (sec):       10.670
                          System time (sec):        0.251
                         Elapsed time (sec):       16.166
  
                   Maximum memory used (kb):       55024.
                   Average memory used (kb):          N/A
  
                          Minor page faults:         8639
                          Major page faults:          438
                 Voluntary context switches:         5550
