<?xml version="1.0" encoding="ISO-8859-1"?>
<modeling>
 <generator>
  <i name="program" type="string">vasp </i>
  <i name="version" type="string">6.2.0  </i>
  <i name="subversion" type="string">18Jan21 (build Feb  1 2022 01:28:57) complex                          parallel </i>
  <i name="platform" type="string">LinuxPGI </i>
  <i name="date" type="string">2022 05 18 </i>
  <i name="time" type="string">19:36:32 </i>
 </generator>
 <incar>
  <i type="string" name="PREC">Normal</i>
  <i type="string" name="ALGO">38</i>
  <i type="int" name="ISPIN">     1</i>
  <i type="int" name="NELM">    60</i>
  <i type="int" name="NELMIN">     4</i>
  <i type="int" name="IBRION">     2</i>
  <i name="EDIFF">      0.00010000</i>
  <i name="EDIFFG">     -0.03000000</i>
  <i type="int" name="NSW">   300</i>
  <i type="int" name="ISIF">     3</i>
  <i type="int" name="ISYM">     0</i>
  <i name="SYMPREC">      0.00001000</i>
  <i name="ENCUT">    420.00000000</i>
  <i type="logical" name="LREAL"> F  </i>
  <i type="int" name="ISMEAR">     0</i>
  <i name="SIGMA">      0.05000000</i>
  <i type="logical" name="LWAVE"> F  </i>
  <i type="logical" name="LVTOT"> F  </i>
  <i type="int" name="LORBIT">    11</i>
  <i type="logical" name="LASPH"> F  </i>
  <i type="string" name="GGA">RP</i>
 </incar>
 <primitive_cell>
  <structure name="primitive_cell" >
   <crystal>
    <varray name="basis" >
     <v>       2.44112900       0.00000000       1.40939300 </v>
     <v>       0.81371100       2.30151700       1.40939300 </v>
     <v>       0.00000000       0.00000000       2.81877600 </v>
    </varray>
    <i name="volume">     15.83672890 </i>
    <varray name="rec_basis" >
     <v>       0.40964652      -0.14483225       0.00000000 </v>
     <v>       0.00000000       0.43449603       0.00000000 </v>
     <v>      -0.20482399      -0.14483241       0.35476391 </v>
    </varray>
   </crystal>
   <varray name="positions" >
    <v>       0.00000000       0.00000000       0.00000000 </v>
   </varray>
  </structure>
  <varray name="primitive_index" >
   <v type="int" >        1 </v>
  </varray>
 </primitive_cell>
 <kpoints>
  <generation param="Gamma">
   <v type="int" name="divisions">       6        6        6 </v>
   <v name="usershift">      0.00000000       0.00000000       0.00000000 </v>
   <v name="genvec1">      0.16666667       0.00000000       0.00000000 </v>
   <v name="genvec2">      0.00000000       0.16666667       0.00000000 </v>
   <v name="genvec3">     -0.00000000      -0.00000000       0.16666667 </v>
   <v name="shift">      0.00000000       0.00000000       0.00000000 </v>
  </generation>
  <varray name="kpointlist" >
   <v>       0.00000000       0.00000000       0.00000000 </v>
   <v>       0.16666667       0.00000000       0.00000000 </v>
   <v>       0.00000000       0.16666667       0.00000000 </v>
   <v>       0.00000000       0.00000000       0.16666667 </v>
   <v>       0.16666667       0.16666667       0.16666667 </v>
   <v>       0.33333333       0.00000000       0.00000000 </v>
   <v>       0.00000000       0.33333333       0.00000000 </v>
   <v>       0.00000000       0.00000000       0.33333333 </v>
   <v>       0.33333333       0.33333333       0.33333333 </v>
   <v>       0.50000000       0.00000000       0.00000000 </v>
   <v>       0.00000000       0.50000000       0.00000000 </v>
   <v>       0.00000000       0.00000000       0.50000000 </v>
   <v>       0.50000000       0.50000000       0.50000000 </v>
   <v>       0.16666667       0.16666667       0.00000000 </v>
   <v>       0.00000000       0.16666667       0.16666667 </v>
   <v>       0.16666667       0.00000000       0.16666667 </v>
   <v>       0.33333333       0.16666667       0.00000000 </v>
   <v>       0.00000000       0.33333333       0.16666667 </v>
   <v>       0.16666667       0.00000000       0.33333333 </v>
   <v>       0.16666667       0.16666667      -0.16666667 </v>
   <v>       0.33333333       0.16666667       0.33333333 </v>
   <v>       0.16666667       0.33333333       0.00000000 </v>
   <v>       0.16666667      -0.16666667      -0.16666667 </v>
   <v>       0.33333333       0.33333333       0.16666667 </v>
   <v>       0.00000000       0.16666667       0.33333333 </v>
   <v>      -0.16666667       0.16666667      -0.16666667 </v>
   <v>       0.16666667       0.33333333       0.33333333 </v>
   <v>       0.33333333       0.00000000       0.16666667 </v>
   <v>       0.50000000       0.16666667       0.00000000 </v>
   <v>       0.00000000       0.50000000       0.16666667 </v>
   <v>       0.16666667       0.00000000       0.50000000 </v>
   <v>       0.16666667       0.16666667      -0.33333333 </v>
   <v>       0.50000000       0.33333333       0.50000000 </v>
   <v>       0.16666667       0.50000000       0.00000000 </v>
   <v>       0.33333333      -0.16666667      -0.16666667 </v>
   <v>       0.50000000       0.50000000       0.33333333 </v>
   <v>       0.00000000       0.16666667       0.50000000 </v>
   <v>      -0.16666667       0.33333333      -0.16666667 </v>
   <v>       0.33333333       0.50000000       0.50000000 </v>
   <v>       0.50000000       0.00000000       0.16666667 </v>
   <v>      -0.33333333       0.16666667       0.00000000 </v>
   <v>       0.00000000      -0.33333333       0.16666667 </v>
   <v>       0.16666667       0.00000000      -0.33333333 </v>
   <v>       0.16666667       0.16666667       0.50000000 </v>
   <v>      -0.33333333       0.50000000      -0.33333333 </v>
   <v>       0.16666667      -0.33333333       0.00000000 </v>
   <v>       0.50000000      -0.16666667      -0.16666667 </v>
   <v>      -0.33333333      -0.33333333       0.50000000 </v>
   <v>       0.00000000       0.16666667      -0.33333333 </v>
   <v>      -0.16666667       0.50000000      -0.16666667 </v>
   <v>       0.50000000      -0.33333333      -0.33333333 </v>
   <v>      -0.33333333       0.00000000       0.16666667 </v>
   <v>      -0.16666667       0.16666667       0.00000000 </v>
   <v>       0.00000000      -0.16666667       0.16666667 </v>
   <v>       0.16666667       0.00000000      -0.16666667 </v>
   <v>       0.16666667       0.16666667       0.33333333 </v>
   <v>      -0.16666667      -0.33333333      -0.16666667 </v>
   <v>      -0.33333333      -0.16666667      -0.16666667 </v>
   <v>       0.33333333       0.33333333       0.00000000 </v>
   <v>       0.00000000       0.33333333       0.33333333 </v>
   <v>       0.33333333       0.00000000       0.33333333 </v>
   <v>       0.50000000       0.33333333       0.00000000 </v>
   <v>       0.00000000       0.50000000       0.33333333 </v>
   <v>       0.33333333       0.00000000       0.50000000 </v>
   <v>       0.33333333       0.33333333      -0.16666667 </v>
   <v>       0.50000000       0.16666667       0.50000000 </v>
   <v>       0.33333333       0.50000000       0.00000000 </v>
   <v>       0.16666667      -0.33333333      -0.33333333 </v>
   <v>       0.50000000       0.50000000       0.16666667 </v>
   <v>       0.00000000       0.33333333       0.50000000 </v>
   <v>      -0.33333333       0.16666667      -0.33333333 </v>
   <v>       0.16666667       0.50000000       0.50000000 </v>
   <v>       0.50000000       0.00000000       0.33333333 </v>
   <v>      -0.33333333       0.33333333       0.00000000 </v>
   <v>       0.00000000      -0.33333333       0.33333333 </v>
   <v>       0.33333333       0.00000000      -0.33333333 </v>
   <v>       0.33333333       0.33333333      -0.33333333 </v>
   <v>      -0.33333333       0.33333333      -0.33333333 </v>
   <v>       0.33333333      -0.33333333      -0.33333333 </v>
   <v>       0.50000000       0.50000000       0.00000000 </v>
   <v>       0.00000000       0.50000000       0.50000000 </v>
   <v>       0.50000000       0.00000000       0.50000000 </v>
   <v>       0.50000000       0.33333333       0.16666667 </v>
   <v>       0.16666667       0.50000000       0.33333333 </v>
   <v>       0.33333333       0.16666667       0.50000000 </v>
   <v>       0.33333333       0.16666667      -0.16666667 </v>
   <v>       0.50000000       0.16666667       0.33333333 </v>
   <v>       0.16666667      -0.33333333      -0.16666667 </v>
   <v>       0.16666667       0.33333333      -0.16666667 </v>
   <v>       0.16666667      -0.16666667      -0.33333333 </v>
   <v>       0.33333333       0.50000000       0.16666667 </v>
   <v>      -0.16666667       0.16666667      -0.33333333 </v>
   <v>      -0.33333333       0.16666667      -0.16666667 </v>
   <v>       0.16666667       0.33333333       0.50000000 </v>
   <v>      -0.33333333       0.33333333       0.16666667 </v>
   <v>       0.16666667      -0.33333333       0.33333333 </v>
   <v>       0.33333333       0.16666667      -0.33333333 </v>
   <v>      -0.33333333       0.33333333       0.50000000 </v>
   <v>       0.16666667       0.50000000      -0.16666667 </v>
   <v>       0.33333333      -0.16666667      -0.33333333 </v>
   <v>       0.50000000      -0.33333333       0.33333333 </v>
   <v>      -0.16666667       0.16666667       0.50000000 </v>
   <v>      -0.33333333       0.33333333      -0.16666667 </v>
   <v>       0.33333333       0.50000000      -0.33333333 </v>
   <v>       0.50000000      -0.16666667       0.16666667 </v>
   <v>      -0.16666667      -0.33333333       0.33333333 </v>
   <v>      -0.33333333       0.50000000       0.16666667 </v>
   <v>       0.16666667      -0.33333333       0.50000000 </v>
   <v>       0.50000000       0.16666667      -0.33333333 </v>
   <v>       0.50000000       0.33333333      -0.16666667 </v>
   <v>      -0.33333333       0.16666667       0.50000000 </v>
   <v>       0.16666667       0.50000000      -0.33333333 </v>
  </varray>
  <varray name="weights" >
   <v>       0.00462963 </v>
   <v>       0.00925926 </v>
   <v>       0.00925926 </v>
   <v>       0.00925926 </v>
   <v>       0.00925926 </v>
   <v>       0.00925926 </v>
   <v>       0.00925926 </v>
   <v>       0.00925926 </v>
   <v>       0.00925926 </v>
   <v>       0.00462963 </v>
   <v>       0.00462963 </v>
   <v>       0.00462963 </v>
   <v>       0.00462963 </v>
   <v>       0.00925926 </v>
   <v>       0.00925926 </v>
   <v>       0.00925926 </v>
   <v>       0.00925926 </v>
   <v>       0.00925926 </v>
   <v>       0.00925926 </v>
   <v>       0.00925926 </v>
   <v>       0.00925926 </v>
   <v>       0.00925926 </v>
   <v>       0.00925926 </v>
   <v>       0.00925926 </v>
   <v>       0.00925926 </v>
   <v>       0.00925926 </v>
   <v>       0.00925926 </v>
   <v>       0.00925926 </v>
   <v>       0.00925926 </v>
   <v>       0.00925926 </v>
   <v>       0.00925926 </v>
   <v>       0.00925926 </v>
   <v>       0.00925926 </v>
   <v>       0.00925926 </v>
   <v>       0.00925926 </v>
   <v>       0.00925926 </v>
   <v>       0.00925926 </v>
   <v>       0.00925926 </v>
   <v>       0.00925926 </v>
   <v>       0.00925926 </v>
   <v>       0.00925926 </v>
   <v>       0.00925926 </v>
   <v>       0.00925926 </v>
   <v>       0.00925926 </v>
   <v>       0.00925926 </v>
   <v>       0.00925926 </v>
   <v>       0.00925926 </v>
   <v>       0.00925926 </v>
   <v>       0.00925926 </v>
   <v>       0.00925926 </v>
   <v>       0.00925926 </v>
   <v>       0.00925926 </v>
   <v>       0.00925926 </v>
   <v>       0.00925926 </v>
   <v>       0.00925926 </v>
   <v>       0.00925926 </v>
   <v>       0.00925926 </v>
   <v>       0.00925926 </v>
   <v>       0.00925926 </v>
   <v>       0.00925926 </v>
   <v>       0.00925926 </v>
   <v>       0.00925926 </v>
   <v>       0.00925926 </v>
   <v>       0.00925926 </v>
   <v>       0.00925926 </v>
   <v>       0.00925926 </v>
   <v>       0.00925926 </v>
   <v>       0.00925926 </v>
   <v>       0.00925926 </v>
   <v>       0.00925926 </v>
   <v>       0.00925926 </v>
   <v>       0.00925926 </v>
   <v>       0.00925926 </v>
   <v>       0.00925926 </v>
   <v>       0.00925926 </v>
   <v>       0.00925926 </v>
   <v>       0.00925926 </v>
   <v>       0.00925926 </v>
   <v>       0.00925926 </v>
   <v>       0.00462963 </v>
   <v>       0.00462963 </v>
   <v>       0.00462963 </v>
   <v>       0.00925926 </v>
   <v>       0.00925926 </v>
   <v>       0.00925926 </v>
   <v>       0.00925926 </v>
   <v>       0.00925926 </v>
   <v>       0.00925926 </v>
   <v>       0.00925926 </v>
   <v>       0.00925926 </v>
   <v>       0.00925926 </v>
   <v>       0.00925926 </v>
   <v>       0.00925926 </v>
   <v>       0.00925926 </v>
   <v>       0.00925926 </v>
   <v>       0.00925926 </v>
   <v>       0.00925926 </v>
   <v>       0.00925926 </v>
   <v>       0.00925926 </v>
   <v>       0.00925926 </v>
   <v>       0.00925926 </v>
   <v>       0.00925926 </v>
   <v>       0.00925926 </v>
   <v>       0.00925926 </v>
   <v>       0.00925926 </v>
   <v>       0.00925926 </v>
   <v>       0.00925926 </v>
   <v>       0.00925926 </v>
   <v>       0.00925926 </v>
   <v>       0.00925926 </v>
   <v>       0.00925926 </v>
   <v>       0.00925926 </v>
  </varray>
 </kpoints>
 <parameters>
  <separator name="general" >
   <i type="string" name="SYSTEM">unknown system</i>
   <i type="logical" name="LCOMPAT"> F  </i>
  </separator>
  <separator name="electronic" >
   <i type="string" name="PREC">normal</i>
   <i name="ENMAX">    420.00000000</i>
   <i name="ENAUG">    358.96600000</i>
   <i name="EDIFF">      0.00010000</i>
   <i type="int" name="IALGO">    38</i>
   <i type="int" name="IWAVPR">    11</i>
   <i type="int" name="NBANDS">    12</i>
   <i type="int" name="NBANDSLOW">    -1</i>
   <i type="int" name="NBANDSHIGH">    -1</i>
   <i name="NELECT">     10.00000000</i>
   <i type="int" name="TURBO">     0</i>
   <i type="int" name="IRESTART">     0</i>
   <i type="int" name="NREBOOT">     0</i>
   <i type="int" name="NMIN">     0</i>
   <i name="EREF">      0.00000000</i>
   <separator name="electronic smearing" >
    <i type="int" name="ISMEAR">     0</i>
    <i name="SIGMA">      0.05000000</i>
    <i name="KSPACING">      0.50000000</i>
    <i type="logical" name="KGAMMA"> T  </i>
    <i type="logical" name="KBLOWUP"> T  </i>
   </separator>
   <separator name="electronic projectors" >
    <i type="logical" name="LREAL"> F  </i>
    <v name="ROPT">      0.00000000</v>
    <i type="int" name="LMAXPAW">  -100</i>
    <i type="int" name="LMAXMIX">     2</i>
    <i type="logical" name="NLSPLINE"> F  </i>
   </separator>
   <separator name="electronic startup" >
    <i type="int" name="ISTART">     0</i>
    <i type="int" name="ICHARG">     2</i>
    <i type="int" name="INIWAV">     1</i>
   </separator>
   <separator name="electronic spin" >
    <i type="int" name="ISPIN">     1</i>
    <i type="logical" name="LNONCOLLINEAR"> F  </i>
    <v name="MAGMOM">      1.00000000</v>
    <i name="NUPDOWN">     -1.00000000</i>
    <i type="logical" name="LSORBIT"> F  </i>
    <v name="SAXIS">      0.00000000      0.00000000      1.00000000</v>
    <i type="logical" name="LSPIRAL"> F  </i>
    <v name="QSPIRAL">      0.00000000      0.00000000      0.00000000</v>
    <i type="logical" name="LZEROZ"> F  </i>
   </separator>
   <separator name="electronic exchange-correlation" >
    <i type="logical" name="LASPH"> F  </i>
    <i type="logical" name="LMETAGGA"> F  </i>
   </separator>
   <separator name="electronic convergence" >
    <i type="int" name="NELM">    60</i>
    <i type="int" name="NELMDL">    -5</i>
    <i type="int" name="NELMIN">     4</i>
    <i name="ENINI">    420.00000000</i>
    <separator name="electronic convergence detail" >
     <i type="logical" name="LDIAG"> T  </i>
     <i type="logical" name="LSUBROT"> F  </i>
     <i name="WEIMIN">      0.00100000</i>
     <i name="EBREAK">      0.00000208</i>
     <i name="DEPER">      0.30000000</i>
     <i type="int" name="NRMM">     4</i>
     <i name="TIME">      0.40000000</i>
    </separator>
   </separator>
   <separator name="electronic mixer" >
    <i name="AMIX">      0.40000000</i>
    <i name="BMIX">      1.00000000</i>
    <i name="AMIN">      0.10000000</i>
    <i name="AMIX_MAG">      1.60000000</i>
    <i name="BMIX_MAG">      1.00000000</i>
    <separator name="electronic mixer details" >
     <i type="int" name="IMIX">     4</i>
     <i type="logical" name="MIXFIRST"> F  </i>
     <i type="int" name="MAXMIX">   -45</i>
     <i name="WC">    100.00000000</i>
     <i type="int" name="INIMIX">     1</i>
     <i type="int" name="MIXPRE">     1</i>
     <i type="int" name="MREMOVE">     5</i>
    </separator>
   </separator>
   <separator name="electronic dipolcorrection" >
    <i type="logical" name="LDIPOL"> F  </i>
    <i type="logical" name="LMONO"> F  </i>
    <i type="int" name="IDIPOL">     0</i>
    <i name="EPSILON">      1.00000000</i>
    <v name="DIPOL">   -100.00000000   -100.00000000   -100.00000000</v>
    <i name="EFIELD">      0.00000000</i>
   </separator>
  </separator>
  <separator name="grids" >
   <i type="int" name="NGX">    14</i>
   <i type="int" name="NGY">    14</i>
   <i type="int" name="NGZ">    14</i>
   <i type="int" name="NGXF">    28</i>
   <i type="int" name="NGYF">    28</i>
   <i type="int" name="NGZF">    28</i>
   <i type="logical" name="ADDGRID"> F  </i>
  </separator>
  <separator name="ionic" >
   <i type="int" name="NSW">   300</i>
   <i type="int" name="IBRION">     2</i>
   <i type="int" name="MDALGO">     0</i>
   <i type="int" name="ISIF">     3</i>
   <i name="PSTRESS">      0.00000000</i>
   <i name="EDIFFG">     -0.03000000</i>
   <i type="int" name="NFREE">     1</i>
   <i name="POTIM">      0.50000000</i>
   <i name="SMASS">     -3.00000000</i>
   <i name="SCALEE">      1.00000000</i>
  </separator>
  <separator name="ionic md" >
   <i name="TEBEG">      0.00010000</i>
   <i name="TEEND">      0.00010000</i>
   <i type="int" name="NBLOCK">     1</i>
   <i type="int" name="KBLOCK">   300</i>
   <i type="int" name="NPACO">   256</i>
   <i name="APACO">     16.00000000</i>
  </separator>
  <separator name="symmetry" >
   <i type="int" name="ISYM">     0</i>
   <i name="SYMPREC">      0.00001000</i>
  </separator>
  <separator name="dos" >
   <i type="int" name="LORBIT">    11</i>
   <v name="RWIGS">     -1.00000000</v>
   <i type="int" name="NEDOS">   301</i>
   <i name="EMIN">     10.00000000</i>
   <i name="EMAX">    -10.00000000</i>
   <i name="EFERMI">      0.00000000</i>
  </separator>
  <separator name="writing" >
   <i type="int" name="NWRITE">     2</i>
   <i type="logical" name="LWAVE"> F  </i>
   <i type="logical" name="LDOWNSAMPLE"> F  </i>
   <i type="logical" name="LCHARG"> T  </i>
   <i type="logical" name="LPARD"> F  </i>
   <i type="logical" name="LVTOT"> F  </i>
   <i type="logical" name="LVHAR"> F  </i>
   <i type="logical" name="LELF"> F  </i>
   <i type="logical" name="LOPTICS"> F  </i>
   <v name="STM">      0.00000000      0.00000000      0.00000000      0.00000000      0.00000000      0.00000000      0.00000000</v>
  </separator>
  <separator name="performance" >
   <i type="int" name="NPAR">     4</i>
   <i type="int" name="NSIM">     4</i>
   <i type="int" name="NBLK">    -1</i>
   <i type="logical" name="LPLANE"> T  </i>
   <i type="logical" name="LSCALAPACK"> T  </i>
   <i type="logical" name="LSCAAWARE"> F  </i>
   <i type="logical" name="LSCALU"> F  </i>
   <i type="logical" name="LASYNC"> F  </i>
   <i type="logical" name="LORBITALREAL"> F  </i>
  </separator>
  <separator name="miscellaneous" >
   <i type="int" name="IDIOT">     3</i>
   <i type="int" name="PHON_NSTRUCT">    -1</i>
   <i type="logical" name="LMUSIC"> F  </i>
   <v name="POMASS">    195.08000000</v>
   <v name="DARWINR">      0.00000000</v>
   <v name="DARWINV">      1.00000000</v>
   <i type="logical" name="LCORR"> T  </i>
  </separator>
  <i type="logical" name="GGA_COMPAT"> T  </i>
  <i type="logical" name="LBERRY"> F  </i>
  <i type="int" name="ICORELEVEL">     0</i>
  <i type="logical" name="LDAU"> F  </i>
  <i type="int" name="I_CONSTRAINED_M">     0</i>
  <separator name="electronic exchange-correlation" >
   <i type="string" name="GGA">RP</i>
   <i type="int" name="VOSKOWN">     0</i>
   <i type="logical" name="LHFCALC"> F  </i>
   <i type="string" name="PRECFOCK"></i>
   <i type="logical" name="LSYMGRAD"> F  </i>
   <i type="logical" name="LHFONE"> F  </i>
   <i type="logical" name="LRHFCALC"> F  </i>
   <i type="logical" name="LTHOMAS"> F  </i>
   <i type="logical" name="LMODELHF"> F  </i>
   <i type="logical" name="LFOCKACE"> F  </i>
   <i name="ENCUT4O">     -1.00000000</i>
   <i type="int" name="EXXOEP">     0</i>
   <i type="int" name="FOURORBIT">     0</i>
   <i name="AEXX">      0.00000000</i>
   <i name="HFALPHA">      0.00000000</i>
   <i name="MCALPHA">      0.00000000</i>
   <i name="ALDAX">      1.00000000</i>
   <i name="AGGAX">      1.00000000</i>
   <i name="ALDAC">      1.00000000</i>
   <i name="AGGAC">      1.00000000</i>
   <i type="int" name="NKREDX">     1</i>
   <i type="int" name="NKREDY">     1</i>
   <i type="int" name="NKREDZ">     1</i>
   <i type="logical" name="SHIFTRED"> F  </i>
   <i type="logical" name="ODDONLY"> F  </i>
   <i type="logical" name="EVENONLY"> F  </i>
   <i type="int" name="LMAXFOCK">     0</i>
   <i type="int" name="NMAXFOCKAE">     0</i>
   <i type="logical" name="LFOCKAEDFT"> F  </i>
   <i name="HFSCREEN">      0.00000000</i>
   <i name="HFSCREENC">      0.00000000</i>
   <i type="int" name="NBANDSGWLOW">     0</i>
  </separator>
  <separator name="vdW DFT" >
   <i type="logical" name="LUSE_VDW"> F  </i>
   <i name="Zab_VDW">     -0.84910000</i>
   <i name="PARAM1">      0.12340000</i>
   <i name="PARAM2">      1.00000000</i>
   <i name="PARAM3">      0.00000000</i>
  </separator>
  <separator name="model GW" >
   <i type="int" name="MODEL_GW">     0</i>
   <i name="MODEL_EPS0">      9.50203734</i>
   <i name="MODEL_ALPHA">      1.00000000</i>
  </separator>
  <separator name="linear response parameters" >
   <i type="logical" name="LEPSILON"> F  </i>
   <i type="logical" name="LRPA"> F  </i>
   <i type="logical" name="LNABLA"> F  </i>
   <i type="logical" name="LVEL"> F  </i>
   <i type="int" name="KINTER">     0</i>
   <i name="CSHIFT">      0.10000000</i>
   <i name="OMEGAMAX">     -1.00000000</i>
   <i name="DEG_THRESHOLD">      0.00200000</i>
   <i name="RTIME">     -0.10000000</i>
   <i name="WPLASMAI">      0.00000000</i>
   <v name="DFIELD">      0.00000000      0.00000000      0.00000000</v>
   <v name="WPLASMA">      0.00000000      0.00000000      0.00000000      0.00000000      0.00000000      0.00000000      0.00000000      0.00000000      0.00000000</v>
  </separator>
  <separator name="orbital magnetization" >
   <i type="logical" name="NUCIND"> F  </i>
   <v name="MAGPOS">      0.00000000      0.00000000      0.00000000</v>
   <i type="logical" name="LNICSALL"> T  </i>
   <i type="logical" name="ORBITALMAG"> F  </i>
   <i type="logical" name="LMAGBLOCH"> F  </i>
   <i type="logical" name="LCHIMAG"> F  </i>
   <i type="logical" name="LGAUGE"> T  </i>
   <i type="int" name="MAGATOM">     0</i>
   <v name="MAGDIPOL">      0.00000000      0.00000000      0.00000000</v>
   <v name="AVECCONST">      0.00000000      0.00000000      0.00000000</v>
  </separator>
  <separator name="response functions" >
   <i type="logical" name="LFINITE_TEMPERATURE"> F  </i>
   <i type="logical" name="LADDER"> F  </i>
   <i type="logical" name="LRPAFORCE"> F  </i>
   <i type="logical" name="LFXC"> F  </i>
   <i type="logical" name="LHARTREE"> T  </i>
   <i type="int" name="IBSE">     0</i>
   <v type="int" name="KPOINT">    -1     0     0     0</v>
   <i type="logical" name="LTCTC"> F  </i>
   <i type="logical" name="LTCTE"> F  </i>
   <i type="logical" name="LTETE"> F  </i>
   <i type="logical" name="LTRIPLET"> F  </i>
   <i type="logical" name="LFXCEPS"> F  </i>
   <i type="logical" name="LFXHEG"> F  </i>
   <i type="int" name="NATURALO">     2</i>
   <i type="logical" name="LHOLEGF"> F  </i>
   <i type="logical" name="L2ORDER"> F  </i>
   <i type="logical" name="LDMP1"> F  </i>
   <i type="logical" name="LMP2LT"> F  </i>
   <i type="logical" name="LSMP2LT"> F  </i>
   <i type="logical" name="LGWLF"> F  </i>
   <i name="ENCUTGW">     -2.00000000</i>
   <i name="ENCUTGWSOFT">     -2.00000000</i>
   <i name="ENCUTLF">     -1.00000000</i>
   <i type="logical" name="LESF_SPLINES"> F  </i>
   <i type="int" name="LMAXMP2">    -1</i>
   <i name="SCISSOR">      0.00000000</i>
   <i type="int" name="NOMEGA">     0</i>
   <i type="int" name="NOMEGAR">     0</i>
   <i type="int" name="NBANDSGW">    -1</i>
   <i type="int" name="NBANDSO">    -1</i>
   <i type="int" name="NBANDSV">    -1</i>
   <i type="int" name="NELM">    60</i>
   <i type="int" name="NELMHF">     1</i>
   <i type="int" name="DIM">     3</i>
   <i type="int" name="IESPILON">     4</i>
   <i type="int" name="ANTIRES">     0</i>
   <i name="OMEGAMAX">    -30.00000000</i>
   <i name="OMEGAMIN">    -30.00000000</i>
   <i name="OMEGATL">   -200.00000000</i>
   <i type="int" name="OMEGAGRID">     0</i>
   <i name="CSHIFT">     -0.10000000</i>
   <i type="logical" name="LSELFENERGY"> F  </i>
   <i type="logical" name="LSPECTRAL"> F  </i>
   <i type="logical" name="LSPECTRALGW"> F  </i>
   <i type="logical" name="LSINGLES"> F  </i>
   <i type="logical" name="LFERMIGW"> F  </i>
   <i type="logical" name="ODDONLYGW"> F  </i>
   <i type="logical" name="EVENONLYGW"> F  </i>
   <i type="int" name="NKREDLFX">     1</i>
   <i type="int" name="NKREDLFY">     1</i>
   <i type="int" name="NKREDLFZ">     1</i>
   <i type="int" name="MAXMEM">  2800</i>
   <i type="int" name="TELESCOPE">     0</i>
   <i type="int" name="NTAUPAR">    -1</i>
   <i type="int" name="NOMEGAPAR">    -1</i>
   <i name="DAMP_NEWTON">      0.80000001</i>
   <i name="LAMBDA">      1.00000000</i>
  </separator>
  <separator name="External order field" >
   <i name="OFIELD_KAPPA">      0.00000000</i>
   <v name="OFIELD_K">      0.00000000      0.00000000      0.00000000</v>
   <i name="OFIELD_Q6_NEAR">      0.00000000</i>
   <i name="OFIELD_Q6_FAR">      0.00000000</i>
   <i name="OFIELD_A">      0.00000000</i>
  </separator>
 </parameters>
 <atominfo>
  <atoms>       1 </atoms>
  <types>       1 </types>
  <array name="atoms" >
   <dimension dim="1">ion</dimension>
   <field type="string">element</field>
   <field type="int">atomtype</field>
   <set>
    <rc><c>Pt</c><c>   1</c></rc>
   </set>
  </array>
  <array name="atomtypes" >
   <dimension dim="1">type</dimension>
   <field type="int">atomspertype</field>
   <field type="string">element</field>
   <field>mass</field>
   <field>valence</field>
   <field type="string">pseudopotential</field>
   <set>
    <rc><c>   1</c><c>Pt</c><c>    195.08000000</c><c>     10.00000000</c><c>  PAW_PBE Pt 04Feb2005                  </c></rc>
   </set>
  </array>
 </atominfo>
 <structure name="initialpos" >
  <crystal>
   <varray name="basis" >
    <v>       2.44112900       0.00000000       1.40939300 </v>
    <v>       0.81371100       2.30151700       1.40939300 </v>
    <v>       0.00000000       0.00000000       2.81877600 </v>
   </varray>
   <i name="volume">     15.83672890 </i>
   <varray name="rec_basis" >
    <v>       0.40964652      -0.14483225       0.00000000 </v>
    <v>       0.00000000       0.43449603       0.00000000 </v>
    <v>      -0.20482399      -0.14483241       0.35476391 </v>
   </varray>
  </crystal>
  <varray name="positions" >
   <v>       0.00000000       0.00000000       0.00000000 </v>
  </varray>
 </structure>
 <calculation>
  <scstep>
   <time name="dav">    0.46    0.46</time>
   <time name="total">    0.47    0.47</time>
   <energy>
    <i name="alphaZ">     60.02392767 </i>
    <i name="ewald">   -828.08934173 </i>
    <i name="hartreedc">    -75.88889407 </i>
    <i name="XCdc">      3.32728645 </i>
    <i name="pawpsdc">    696.70595042 </i>
    <i name="pawaedc">   -667.45827301 </i>
    <i name="eentropy">     -0.00103188 </i>
    <i name="bandstr">    117.44695308 </i>
    <i name="atom">    728.31920932 </i>
    <i name="e_fr_energy">     34.38578626 </i>
    <i name="e_wo_entrp">     34.38681814 </i>
    <i name="e_0_energy">     34.38630220 </i>
   </energy>
  </scstep>
  <scstep>
   <time name="dav">    0.48    0.48</time>
   <time name="total">    0.48    0.49</time>
   <energy>
    <i name="e_fr_energy">     -5.38950773 </i>
    <i name="e_wo_entrp">     -5.38780180 </i>
    <i name="e_0_energy">     -5.38865476 </i>
   </energy>
  </scstep>
  <scstep>
   <time name="dav">    0.50    0.50</time>
   <time name="total">    0.50    0.50</time>
   <energy>
    <i name="e_fr_energy">     -5.90552638 </i>
    <i name="e_wo_entrp">     -5.90362373 </i>
    <i name="e_0_energy">     -5.90457505 </i>
   </energy>
  </scstep>
  <scstep>
   <time name="dav">    0.50    0.50</time>
   <time name="total">    0.50    0.50</time>
   <energy>
    <i name="e_fr_energy">     -5.90763559 </i>
    <i name="e_wo_entrp">     -5.90573902 </i>
    <i name="e_0_energy">     -5.90668730 </i>
   </energy>
  </scstep>
  <scstep>
   <time name="dav">    0.50    0.50</time>
   <time name="total">    0.51    0.51</time>
   <energy>
    <i name="e_fr_energy">     -5.90765296 </i>
    <i name="e_wo_entrp">     -5.90575646 </i>
    <i name="e_0_energy">     -5.90670471 </i>
   </energy>
  </scstep>
  <scstep>
   <time name="dav">    0.46    0.46</time>
   <time name="total">    0.48    0.48</time>
   <energy>
    <i name="e_fr_energy">     -5.59139926 </i>
    <i name="e_wo_entrp">     -5.58913983 </i>
    <i name="e_0_energy">     -5.59026955 </i>
   </energy>
  </scstep>
  <scstep>
   <time name="dav">    0.47    0.47</time>
   <time name="total">    0.49    0.49</time>
   <energy>
    <i name="e_fr_energy">     -5.55608079 </i>
    <i name="e_wo_entrp">     -5.55382843 </i>
    <i name="e_0_energy">     -5.55495461 </i>
   </energy>
  </scstep>
  <scstep>
   <time name="dav">    0.45    0.45</time>
   <time name="total">    0.46    0.46</time>
   <energy>
    <i name="e_fr_energy">     -5.55364187 </i>
    <i name="e_wo_entrp">     -5.55142063 </i>
    <i name="e_0_energy">     -5.55253125 </i>
   </energy>
  </scstep>
  <scstep>
   <time name="dav">    0.46    0.47</time>
   <time name="total">    0.48    0.48</time>
   <energy>
    <i name="e_fr_energy">     -5.55340346 </i>
    <i name="e_wo_entrp">     -5.55117541 </i>
    <i name="e_0_energy">     -5.55228943 </i>
   </energy>
  </scstep>
  <scstep>
   <time name="dav">    0.33    0.33</time>
   <time name="total">    0.34    0.34</time>
   <energy>
    <i name="alphaZ">     60.02392767 </i>
    <i name="ewald">   -828.08934173 </i>
    <i name="hartreedc">    -65.50919908 </i>
    <i name="XCdc">      2.99346518 </i>
    <i name="pawpsdc">    896.79673315 </i>
    <i name="pawaedc">   -870.46953720 </i>
    <i name="eentropy">     -0.00222609 </i>
    <i name="bandstr">     70.38356567 </i>
    <i name="atom">    728.31920932 </i>
    <i name="e_fr_energy">     -5.55340310 </i>
    <i name="e_wo_entrp">     -5.55117701 </i>
    <i name="e_0_energy">     -5.55229005 </i>
   </energy>
  </scstep>
  <structure>
   <crystal>
    <varray name="basis" >
     <v>       2.44112900       0.00000000       1.40939300 </v>
     <v>       0.81371100       2.30151700       1.40939300 </v>
     <v>       0.00000000       0.00000000       2.81877600 </v>
    </varray>
    <i name="volume">     15.83672890 </i>
    <varray name="rec_basis" >
     <v>       0.40964652      -0.14483225       0.00000000 </v>
     <v>       0.00000000       0.43449603       0.00000000 </v>
     <v>      -0.20482399      -0.14483241       0.35476391 </v>
    </varray>
   </crystal>
   <varray name="positions" >
    <v>       0.00000000       0.00000000       0.00000000 </v>
   </varray>
  </structure>
  <varray name="forces" >
   <v>      -0.00000522      -0.00000700      -0.00000854 </v>
  </varray>
  <varray name="stress" >
   <v>     -18.70949700       0.00666222       0.01717884 </v>
   <v>       0.00666275     -18.71395512       0.01236685 </v>
   <v>       0.01717935       0.01236586     -18.69070007 </v>
  </varray>
  <energy>
   <i name="e_fr_energy">     -5.55340310 </i>
   <i name="e_wo_entrp">     -5.55117701 </i>
   <i name="e_0_energy">     -5.55229005 </i>
  </energy>
  <time name="totalsc">    4.98    5.02</time>
 </calculation>
 <calculation>
  <scstep>
   <time name="dav">    0.44    0.44</time>
   <time name="total">    0.45    0.45</time>
   <energy>
    <i name="alphaZ">     61.65914926 </i>
    <i name="ewald">   -835.54190165 </i>
    <i name="hartreedc">    -66.10209646 </i>
    <i name="XCdc">      3.21271355 </i>
    <i name="pawpsdc">    896.74910218 </i>
    <i name="pawaedc">   -870.41863611 </i>
    <i name="eentropy">     -0.00208853 </i>
    <i name="bandstr">     76.51462108 </i>
    <i name="atom">    728.31920932 </i>
    <i name="e_fr_energy">     -5.60992736 </i>
    <i name="e_wo_entrp">     -5.60783883 </i>
    <i name="e_0_energy">     -5.60888309 </i>
   </energy>
  </scstep>
  <scstep>
   <time name="dav">    0.43    0.43</time>
   <time name="total">    0.44    0.45</time>
   <energy>
    <i name="e_fr_energy">     -5.55372448 </i>
    <i name="e_wo_entrp">     -5.55158977 </i>
    <i name="e_0_energy">     -5.55265713 </i>
   </energy>
  </scstep>
  <scstep>
   <time name="dav">    0.48    0.49</time>
   <time name="total">    0.50    0.51</time>
   <energy>
    <i name="e_fr_energy">     -5.54962274 </i>
    <i name="e_wo_entrp">     -5.54747996 </i>
    <i name="e_0_energy">     -5.54855135 </i>
   </energy>
  </scstep>
  <scstep>
   <time name="dav">    0.45    0.46</time>
   <time name="total">    0.47    0.47</time>
   <energy>
    <i name="e_fr_energy">     -5.54983210 </i>
    <i name="e_wo_entrp">     -5.54769235 </i>
    <i name="e_0_energy">     -5.54876223 </i>
   </energy>
  </scstep>
  <scstep>
   <time name="dav">    0.32    0.33</time>
   <time name="total">    0.33    0.34</time>
   <energy>
    <i name="alphaZ">     61.65914926 </i>
    <i name="ewald">   -835.54190165 </i>
    <i name="hartreedc">    -63.15266316 </i>
    <i name="XCdc">      3.11984601 </i>
    <i name="pawpsdc">    917.26731023 </i>
    <i name="pawaedc">   -891.10902740 </i>
    <i name="eentropy">     -0.00213970 </i>
    <i name="bandstr">     73.89039860 </i>
    <i name="atom">    728.31920932 </i>
    <i name="e_fr_energy">     -5.54981849 </i>
    <i name="e_wo_entrp">     -5.54767879 </i>
    <i name="e_0_energy">     -5.54874864 </i>
   </energy>
  </scstep>
  <structure>
   <crystal>
    <varray name="basis" >
     <v>       2.41936150       0.00001607       1.39685143 </v>
     <v>       0.80647016       2.28098953       1.39685167 </v>
     <v>       0.00002309       0.00001662       2.79365296 </v>
    </varray>
    <i name="volume">     15.41673347 </i>
    <varray name="rec_basis" >
     <v>       0.41333464      -0.14613767      -0.00000255 </v>
     <v>      -0.00000141       0.43840832      -0.00000261 </v>
     <v>      -0.20667031      -0.14613797       0.35795685 </v>
    </varray>
   </crystal>
   <varray name="positions" >
    <v>      -0.00000005      -0.00000015      -0.00000005 </v>
   </varray>
  </structure>
  <varray name="forces" >
   <v>       0.00000014      -0.00000030       0.00000006 </v>
  </varray>
  <varray name="stress" >
   <v>      47.51534312       0.00146680       0.00350380 </v>
   <v>       0.00146661      47.51493880       0.00255258 </v>
   <v>       0.00350364       0.00255267      47.51989729 </v>
  </varray>
  <energy>
   <i name="e_fr_energy">     -5.54981849 </i>
   <i name="e_wo_entrp">     -5.54767879 </i>
   <i name="e_0_energy">     -5.54874864 </i>
  </energy>
  <time name="totalsc">    2.46    2.51</time>
 </calculation>
 <calculation>
  <scstep>
   <time name="dav">    0.43    0.44</time>
   <time name="total">    0.44    0.46</time>
   <energy>
    <i name="alphaZ">     60.48877939 </i>
    <i name="ewald">   -830.22154303 </i>
    <i name="hartreedc">    -62.76274535 </i>
    <i name="XCdc">      2.96563070 </i>
    <i name="pawpsdc">    918.03517766 </i>
    <i name="pawaedc">   -891.86478350 </i>
    <i name="eentropy">     -0.00301824 </i>
    <i name="bandstr">     69.45630642 </i>
    <i name="atom">    728.31920932 </i>
    <i name="e_fr_energy">     -5.58698661 </i>
    <i name="e_wo_entrp">     -5.58396837 </i>
    <i name="e_0_energy">     -5.58547749 </i>
   </energy>
  </scstep>
  <scstep>
   <time name="dav">    0.43    0.44</time>
   <time name="total">    0.44    0.45</time>
   <energy>
    <i name="e_fr_energy">     -5.55425880 </i>
    <i name="e_wo_entrp">     -5.55206059 </i>
    <i name="e_0_energy">     -5.55315969 </i>
   </energy>
  </scstep>
  <scstep>
   <time name="dav">    0.48    0.49</time>
   <time name="total">    0.49    0.50</time>
   <energy>
    <i name="e_fr_energy">     -5.55398783 </i>
    <i name="e_wo_entrp">     -5.55178958 </i>
    <i name="e_0_energy">     -5.55288870 </i>
   </energy>
  </scstep>
  <scstep>
   <time name="dav">    0.44    0.45</time>
   <time name="total">    0.46    0.47</time>
   <energy>
    <i name="e_fr_energy">     -5.55415050 </i>
    <i name="e_wo_entrp">     -5.55195011 </i>
    <i name="e_0_energy">     -5.55305030 </i>
   </energy>
  </scstep>
  <scstep>
   <time name="dav">    0.30    0.31</time>
   <time name="total">    0.31    0.32</time>
   <energy>
    <i name="alphaZ">     60.48877939 </i>
    <i name="ewald">   -830.22154303 </i>
    <i name="hartreedc">    -64.85103483 </i>
    <i name="XCdc">      3.03005824 </i>
    <i name="pawpsdc">    903.14631727 </i>
    <i name="pawaedc">   -876.85204962 </i>
    <i name="eentropy">     -0.00220150 </i>
    <i name="bandstr">     71.38831805 </i>
    <i name="atom">    728.31920932 </i>
    <i name="e_fr_energy">     -5.55414672 </i>
    <i name="e_wo_entrp">     -5.55194521 </i>
    <i name="e_0_energy">     -5.55304596 </i>
   </energy>
  </scstep>
  <structure>
   <crystal>
    <varray name="basis" >
     <v>       2.43486134       0.00000463       1.40578182 </v>
     <v>       0.81162610       2.29560639       1.40578189 </v>
     <v>       0.00000665       0.00000479       2.81154216 </v>
    </varray>
    <i name="volume">     15.71502483 </i>
    <varray name="rec_basis" >
     <v>       0.41070170      -0.14520573      -0.00000072 </v>
     <v>      -0.00000040       0.43561534      -0.00000074 </v>
     <v>      -0.20535222      -0.14520593       0.35567742 </v>
    </varray>
   </crystal>
   <varray name="positions" >
    <v>      -0.00000002      -0.00000004      -0.00000001 </v>
   </varray>
  </structure>
  <varray name="forces" >
   <v>      -0.00000013      -0.00000007      -0.00000020 </v>
  </varray>
  <varray name="stress" >
   <v>      -1.10051455       0.00713763       0.01697357 </v>
   <v>       0.00713731      -1.10495189       0.01200836 </v>
   <v>       0.01697280       0.01200830      -1.08069406 </v>
  </varray>
  <energy>
   <i name="e_fr_energy">     -5.55414672 </i>
   <i name="e_wo_entrp">     -5.55194521 </i>
   <i name="e_0_energy">     -5.55304596 </i>
  </energy>
  <time name="totalsc">    2.39    2.46</time>
  <eigenvalues>
   <array>
    <dimension dim="1">band</dimension>
    <dimension dim="2">kpoint</dimension>
    <dimension dim="3">spin</dimension>
    <field>eigene</field>
    <field>occ</field>
    <set>
     <set comment="spin 1">
      <set comment="kpoint 1">
       <r>    0.8451    1.0000 </r>
       <r>    7.0010    1.0000 </r>
       <r>    7.0011    1.0000 </r>
       <r>    7.0011    1.0000 </r>
       <r>    9.0057    1.0000 </r>
       <r>    9.0057    1.0000 </r>
       <r>   25.3050    0.0000 </r>
       <r>   30.0559    0.0000 </r>
       <r>   30.0562    0.0000 </r>
       <r>   30.0562    0.0000 </r>
       <r>   35.2466    0.0000 </r>
       <r>   41.8018    0.0000 </r>
      </set>
      <set comment="kpoint 2">
       <r>    1.8531    1.0000 </r>
       <r>    6.6704    1.0000 </r>
       <r>    7.3080    1.0000 </r>
       <r>    7.3081    1.0000 </r>
       <r>    8.9132    1.0000 </r>
       <r>    8.9132    1.0000 </r>
       <r>   26.2893    0.0000 </r>
       <r>   26.6598    0.0000 </r>
       <r>   31.5468    0.0000 </r>
       <r>   31.5471    0.0000 </r>
       <r>   34.9871    0.0000 </r>
       <r>   37.5670    0.0000 </r>
      </set>
      <set comment="kpoint 3">
       <r>    1.8532    1.0000 </r>
       <r>    6.6704    1.0000 </r>
       <r>    7.3080    1.0000 </r>
       <r>    7.3081    1.0000 </r>
       <r>    8.9132    1.0000 </r>
       <r>    8.9132    1.0000 </r>
       <r>   26.2894    0.0000 </r>
       <r>   26.6598    0.0000 </r>
       <r>   31.5468    0.0000 </r>
       <r>   31.5470    0.0000 </r>
       <r>   34.9871    0.0000 </r>
       <r>   37.5670    0.0000 </r>
      </set>
      <set comment="kpoint 4">
       <r>    1.8532    1.0000 </r>
       <r>    6.6704    1.0000 </r>
       <r>    7.3080    1.0000 </r>
       <r>    7.3081    1.0000 </r>
       <r>    8.9132    1.0000 </r>
       <r>    8.9132    1.0000 </r>
       <r>   26.2894    0.0000 </r>
       <r>   26.6598    0.0000 </r>
       <r>   31.5468    0.0000 </r>
       <r>   31.5470    0.0000 </r>
       <r>   34.9871    0.0000 </r>
       <r>   37.5670    0.0000 </r>
      </set>
      <set comment="kpoint 5">
       <r>    1.8531    1.0000 </r>
       <r>    6.6704    1.0000 </r>
       <r>    7.3081    1.0000 </r>
       <r>    7.3081    1.0000 </r>
       <r>    8.9133    1.0000 </r>
       <r>    8.9133    1.0000 </r>
       <r>   26.2891    0.0000 </r>
       <r>   26.6598    0.0000 </r>
       <r>   31.5470    0.0000 </r>
       <r>   31.5471    0.0000 </r>
       <r>   34.9870    0.0000 </r>
       <r>   37.5669    0.0000 </r>
      </set>
      <set comment="kpoint 6">
       <r>    3.4884    1.0000 </r>
       <r>    7.1891    1.0000 </r>
       <r>    7.1892    1.0000 </r>
       <r>    7.5166    1.0000 </r>
       <r>    9.7581    1.0000 </r>
       <r>    9.7581    1.0000 </r>
       <r>   20.6006    0.0000 </r>
       <r>   25.9755    0.0000 </r>
       <r>   31.5170    0.0000 </r>
       <r>   31.5172    0.0000 </r>
       <r>   35.2712    0.0000 </r>
       <r>   35.8342    0.0000 </r>
      </set>
      <set comment="kpoint 7">
       <r>    3.4884    1.0000 </r>
       <r>    7.1891    1.0000 </r>
       <r>    7.1892    1.0000 </r>
       <r>    7.5166    1.0000 </r>
       <r>    9.7581    1.0000 </r>
       <r>    9.7581    1.0000 </r>
       <r>   20.6006    0.0000 </r>
       <r>   25.9755    0.0000 </r>
       <r>   31.5170    0.0000 </r>
       <r>   31.5172    0.0000 </r>
       <r>   35.2712    0.0000 </r>
       <r>   35.8342    0.0000 </r>
      </set>
      <set comment="kpoint 8">
       <r>    3.4884    1.0000 </r>
       <r>    7.1891    1.0000 </r>
       <r>    7.1892    1.0000 </r>
       <r>    7.5166    1.0000 </r>
       <r>    9.7581    1.0000 </r>
       <r>    9.7581    1.0000 </r>
       <r>   20.6006    0.0000 </r>
       <r>   25.9755    0.0000 </r>
       <r>   31.5170    0.0000 </r>
       <r>   31.5172    0.0000 </r>
       <r>   35.2712    0.0000 </r>
       <r>   35.8341    0.0000 </r>
      </set>
      <set comment="kpoint 9">
       <r>    3.4883    1.0000 </r>
       <r>    7.1891    1.0000 </r>
       <r>    7.1891    1.0000 </r>
       <r>    7.5166    1.0000 </r>
       <r>    9.7581    1.0000 </r>
       <r>    9.7581    1.0000 </r>
       <r>   20.6004    0.0000 </r>
       <r>   25.9755    0.0000 </r>
       <r>   31.5172    0.0000 </r>
       <r>   31.5172    0.0000 </r>
       <r>   35.2711    0.0000 </r>
       <r>   35.8342    0.0000 </r>
      </set>
      <set comment="kpoint 10">
       <r>    3.6694    1.0000 </r>
       <r>    6.9466    1.0000 </r>
       <r>    6.9468    1.0000 </r>
       <r>   10.2907    1.0000 </r>
       <r>   10.5562    0.5127 </r>
       <r>   10.5563    0.5121 </r>
       <r>   16.1026    0.0000 </r>
       <r>   24.8652    0.0000 </r>
       <r>   29.2818    0.0000 </r>
       <r>   29.2820    0.0000 </r>
       <r>   38.2533    0.0000 </r>
       <r>   38.2533    0.0000 </r>
      </set>
      <set comment="kpoint 11">
       <r>    3.6694    1.0000 </r>
       <r>    6.9466    1.0000 </r>
       <r>    6.9468    1.0000 </r>
       <r>   10.2907    1.0000 </r>
       <r>   10.5562    0.5127 </r>
       <r>   10.5563    0.5121 </r>
       <r>   16.1026    0.0000 </r>
       <r>   24.8652    0.0000 </r>
       <r>   29.2818    0.0000 </r>
       <r>   29.2820    0.0000 </r>
       <r>   38.2533    0.0000 </r>
       <r>   38.2533    0.0000 </r>
      </set>
      <set comment="kpoint 12">
       <r>    3.6694    1.0000 </r>
       <r>    6.9466    1.0000 </r>
       <r>    6.9468    1.0000 </r>
       <r>   10.2907    1.0000 </r>
       <r>   10.5562    0.5127 </r>
       <r>   10.5563    0.5121 </r>
       <r>   16.1026    0.0000 </r>
       <r>   24.8652    0.0000 </r>
       <r>   29.2818    0.0000 </r>
       <r>   29.2820    0.0000 </r>
       <r>   38.2533    0.0000 </r>
       <r>   38.2533    0.0000 </r>
      </set>
      <set comment="kpoint 13">
       <r>    3.6694    1.0000 </r>
       <r>    6.9467    1.0000 </r>
       <r>    6.9467    1.0000 </r>
       <r>   10.2906    1.0000 </r>
       <r>   10.5563    0.5127 </r>
       <r>   10.5563    0.5126 </r>
       <r>   16.1024    0.0000 </r>
       <r>   24.8653    0.0000 </r>
       <r>   29.2820    0.0000 </r>
       <r>   29.2820    0.0000 </r>
       <r>   38.2534    0.0000 </r>
       <r>   38.2535    0.0000 </r>
      </set>
      <set comment="kpoint 14">
       <r>    2.2020    1.0000 </r>
       <r>    6.2121    1.0000 </r>
       <r>    7.7113    1.0000 </r>
       <r>    7.7114    1.0000 </r>
       <r>    8.1678    1.0000 </r>
       <r>    9.3530    1.0000 </r>
       <r>   27.3037    0.0000 </r>
       <r>   28.2104    0.0000 </r>
       <r>   29.4623    0.0000 </r>
       <r>   29.4625    0.0000 </r>
       <r>   35.8256    0.0000 </r>
       <r>   36.9570    0.0000 </r>
      </set>
      <set comment="kpoint 15">
       <r>    2.2020    1.0000 </r>
       <r>    6.2121    1.0000 </r>
       <r>    7.7113    1.0000 </r>
       <r>    7.7114    1.0000 </r>
       <r>    8.1678    1.0000 </r>
       <r>    9.3530    1.0000 </r>
       <r>   27.3037    0.0000 </r>
       <r>   28.2104    0.0000 </r>
       <r>   29.4623    0.0000 </r>
       <r>   29.4625    0.0000 </r>
       <r>   35.8256    0.0000 </r>
       <r>   36.9569    0.0000 </r>
      </set>
      <set comment="kpoint 16">
       <r>    2.2020    1.0000 </r>
       <r>    6.2121    1.0000 </r>
       <r>    7.7113    1.0000 </r>
       <r>    7.7114    1.0000 </r>
       <r>    8.1678    1.0000 </r>
       <r>    9.3530    1.0000 </r>
       <r>   27.3037    0.0000 </r>
       <r>   28.2104    0.0000 </r>
       <r>   29.4623    0.0000 </r>
       <r>   29.4625    0.0000 </r>
       <r>   35.8256    0.0000 </r>
       <r>   36.9570    0.0000 </r>
      </set>
      <set comment="kpoint 17">
       <r>    3.8685    1.0000 </r>
       <r>    5.8999    1.0000 </r>
       <r>    7.1108    1.0000 </r>
       <r>    8.0151    1.0000 </r>
       <r>    9.5602    1.0000 </r>
       <r>   10.0371    1.0000 </r>
       <r>   23.1139    0.0000 </r>
       <r>   27.4736    0.0000 </r>
       <r>   28.1262    0.0000 </r>
       <r>   30.1177    0.0000 </r>
       <r>   34.3470    0.0000 </r>
       <r>   36.4662    0.0000 </r>
      </set>
      <set comment="kpoint 18">
       <r>    3.8686    1.0000 </r>
       <r>    5.8999    1.0000 </r>
       <r>    7.1108    1.0000 </r>
       <r>    8.0151    1.0000 </r>
       <r>    9.5602    1.0000 </r>
       <r>   10.0371    1.0000 </r>
       <r>   23.1139    0.0000 </r>
       <r>   27.4736    0.0000 </r>
       <r>   28.1262    0.0000 </r>
       <r>   30.1176    0.0000 </r>
       <r>   34.3470    0.0000 </r>
       <r>   36.4662    0.0000 </r>
      </set>
      <set comment="kpoint 19">
       <r>    3.8686    1.0000 </r>
       <r>    5.8999    1.0000 </r>
       <r>    7.1108    1.0000 </r>
       <r>    8.0151    1.0000 </r>
       <r>    9.5602    1.0000 </r>
       <r>   10.0371    1.0000 </r>
       <r>   23.1139    0.0000 </r>
       <r>   27.4736    0.0000 </r>
       <r>   28.1262    0.0000 </r>
       <r>   30.1177    0.0000 </r>
       <r>   34.3470    0.0000 </r>
       <r>   36.4662    0.0000 </r>
      </set>
      <set comment="kpoint 20">
       <r>    3.8685    1.0000 </r>
       <r>    5.8999    1.0000 </r>
       <r>    7.1108    1.0000 </r>
       <r>    8.0152    1.0000 </r>
       <r>    9.5602    1.0000 </r>
       <r>   10.0371    1.0000 </r>
       <r>   23.1139    0.0000 </r>
       <r>   27.4736    0.0000 </r>
       <r>   28.1263    0.0000 </r>
       <r>   30.1177    0.0000 </r>
       <r>   34.3468    0.0000 </r>
       <r>   36.4663    0.0000 </r>
      </set>
      <set comment="kpoint 21">
       <r>    3.8685    1.0000 </r>
       <r>    5.8999    1.0000 </r>
       <r>    7.1108    1.0000 </r>
       <r>    8.0151    1.0000 </r>
       <r>    9.5602    1.0000 </r>
       <r>   10.0371    1.0000 </r>
       <r>   23.1137    0.0000 </r>
       <r>   27.4736    0.0000 </r>
       <r>   28.1263    0.0000 </r>
       <r>   30.1177    0.0000 </r>
       <r>   34.3470    0.0000 </r>
       <r>   36.4663    0.0000 </r>
      </set>
      <set comment="kpoint 22">
       <r>    3.8686    1.0000 </r>
       <r>    5.8999    1.0000 </r>
       <r>    7.1108    1.0000 </r>
       <r>    8.0151    1.0000 </r>
       <r>    9.5602    1.0000 </r>
       <r>   10.0371    1.0000 </r>
       <r>   23.1139    0.0000 </r>
       <r>   27.4736    0.0000 </r>
       <r>   28.1262    0.0000 </r>
       <r>   30.1177    0.0000 </r>
       <r>   34.3470    0.0000 </r>
       <r>   36.4662    0.0000 </r>
      </set>
      <set comment="kpoint 23">
       <r>    3.8685    1.0000 </r>
       <r>    5.8999    1.0000 </r>
       <r>    7.1108    1.0000 </r>
       <r>    8.0152    1.0000 </r>
       <r>    9.5602    1.0000 </r>
       <r>   10.0371    1.0000 </r>
       <r>   23.1139    0.0000 </r>
       <r>   27.4736    0.0000 </r>
       <r>   28.1263    0.0000 </r>
       <r>   30.1177    0.0000 </r>
       <r>   34.3468    0.0000 </r>
       <r>   36.4663    0.0000 </r>
      </set>
      <set comment="kpoint 24">
       <r>    3.8685    1.0000 </r>
       <r>    5.8999    1.0000 </r>
       <r>    7.1108    1.0000 </r>
       <r>    8.0151    1.0000 </r>
       <r>    9.5602    1.0000 </r>
       <r>   10.0371    1.0000 </r>
       <r>   23.1137    0.0000 </r>
       <r>   27.4736    0.0000 </r>
       <r>   28.1263    0.0000 </r>
       <r>   30.1177    0.0000 </r>
       <r>   34.3470    0.0000 </r>
       <r>   36.4663    0.0000 </r>
      </set>
      <set comment="kpoint 25">
       <r>    3.8686    1.0000 </r>
       <r>    5.8999    1.0000 </r>
       <r>    7.1108    1.0000 </r>
       <r>    8.0151    1.0000 </r>
       <r>    9.5602    1.0000 </r>
       <r>   10.0371    1.0000 </r>
       <r>   23.1139    0.0000 </r>
       <r>   27.4736    0.0000 </r>
       <r>   28.1262    0.0000 </r>
       <r>   30.1176    0.0000 </r>
       <r>   34.3470    0.0000 </r>
       <r>   36.4662    0.0000 </r>
      </set>
      <set comment="kpoint 26">
       <r>    3.8685    1.0000 </r>
       <r>    5.8999    1.0000 </r>
       <r>    7.1108    1.0000 </r>
       <r>    8.0152    1.0000 </r>
       <r>    9.5602    1.0000 </r>
       <r>   10.0371    1.0000 </r>
       <r>   23.1139    0.0000 </r>
       <r>   27.4736    0.0000 </r>
       <r>   28.1263    0.0000 </r>
       <r>   30.1177    0.0000 </r>
       <r>   34.3468    0.0000 </r>
       <r>   36.4663    0.0000 </r>
      </set>
      <set comment="kpoint 27">
       <r>    3.8685    1.0000 </r>
       <r>    5.8999    1.0000 </r>
       <r>    7.1108    1.0000 </r>
       <r>    8.0151    1.0000 </r>
       <r>    9.5602    1.0000 </r>
       <r>   10.0371    1.0000 </r>
       <r>   23.1137    0.0000 </r>
       <r>   27.4736    0.0000 </r>
       <r>   28.1264    0.0000 </r>
       <r>   30.1177    0.0000 </r>
       <r>   34.3470    0.0000 </r>
       <r>   36.4663    0.0000 </r>
      </set>
      <set comment="kpoint 28">
       <r>    3.8685    1.0000 </r>
       <r>    5.8999    1.0000 </r>
       <r>    7.1108    1.0000 </r>
       <r>    8.0151    1.0000 </r>
       <r>    9.5602    1.0000 </r>
       <r>   10.0371    1.0000 </r>
       <r>   23.1139    0.0000 </r>
       <r>   27.4736    0.0000 </r>
       <r>   28.1262    0.0000 </r>
       <r>   30.1177    0.0000 </r>
       <r>   34.3470    0.0000 </r>
       <r>   36.4662    0.0000 </r>
      </set>
      <set comment="kpoint 29">
       <r>    4.3903    1.0000 </r>
       <r>    6.4095    1.0000 </r>
       <r>    7.5866    1.0000 </r>
       <r>    7.6700    1.0000 </r>
       <r>   10.6129    0.0582 </r>
       <r>   12.9648    0.0000 </r>
       <r>   16.7939    0.0000 </r>
       <r>   25.6222    0.0000 </r>
       <r>   27.6754    0.0000 </r>
       <r>   28.0777    0.0000 </r>
       <r>   37.4342    0.0000 </r>
       <r>   38.5623    0.0000 </r>
      </set>
      <set comment="kpoint 30">
       <r>    4.3903    1.0000 </r>
       <r>    6.4095    1.0000 </r>
       <r>    7.5866    1.0000 </r>
       <r>    7.6700    1.0000 </r>
       <r>   10.6129    0.0582 </r>
       <r>   12.9648    0.0000 </r>
       <r>   16.7939    0.0000 </r>
       <r>   25.6222    0.0000 </r>
       <r>   27.6753    0.0000 </r>
       <r>   28.0777    0.0000 </r>
       <r>   37.4342    0.0000 </r>
       <r>   38.5623    0.0000 </r>
      </set>
      <set comment="kpoint 31">
       <r>    4.3903    1.0000 </r>
       <r>    6.4095    1.0000 </r>
       <r>    7.5866    1.0000 </r>
       <r>    7.6700    1.0000 </r>
       <r>   10.6129    0.0582 </r>
       <r>   12.9648    0.0000 </r>
       <r>   16.7939    0.0000 </r>
       <r>   25.6222    0.0000 </r>
       <r>   27.6753    0.0000 </r>
       <r>   28.0777    0.0000 </r>
       <r>   37.4342    0.0000 </r>
       <r>   38.5623    0.0000 </r>
      </set>
      <set comment="kpoint 32">
       <r>    4.3902    1.0000 </r>
       <r>    6.4095    1.0000 </r>
       <r>    7.5866    1.0000 </r>
       <r>    7.6700    1.0000 </r>
       <r>   10.6129    0.0581 </r>
       <r>   12.9648    0.0000 </r>
       <r>   16.7939    0.0000 </r>
       <r>   25.6221    0.0000 </r>
       <r>   27.6755    0.0000 </r>
       <r>   28.0777    0.0000 </r>
       <r>   37.4343    0.0000 </r>
       <r>   38.5624    0.0000 </r>
      </set>
      <set comment="kpoint 33">
       <r>    4.3902    1.0000 </r>
       <r>    6.4095    1.0000 </r>
       <r>    7.5865    1.0000 </r>
       <r>    7.6700    1.0000 </r>
       <r>   10.6129    0.0582 </r>
       <r>   12.9647    0.0000 </r>
       <r>   16.7938    0.0000 </r>
       <r>   25.6223    0.0000 </r>
       <r>   27.6755    0.0000 </r>
       <r>   28.0777    0.0000 </r>
       <r>   37.4344    0.0000 </r>
       <r>   38.5624    0.0000 </r>
      </set>
      <set comment="kpoint 34">
       <r>    4.3903    1.0000 </r>
       <r>    6.4095    1.0000 </r>
       <r>    7.5866    1.0000 </r>
       <r>    7.6700    1.0000 </r>
       <r>   10.6129    0.0582 </r>
       <r>   12.9648    0.0000 </r>
       <r>   16.7939    0.0000 </r>
       <r>   25.6222    0.0000 </r>
       <r>   27.6753    0.0000 </r>
       <r>   28.0777    0.0000 </r>
       <r>   37.4342    0.0000 </r>
       <r>   38.5623    0.0000 </r>
      </set>
      <set comment="kpoint 35">
       <r>    4.3902    1.0000 </r>
       <r>    6.4095    1.0000 </r>
       <r>    7.5866    1.0000 </r>
       <r>    7.6700    1.0000 </r>
       <r>   10.6129    0.0581 </r>
       <r>   12.9648    0.0000 </r>
       <r>   16.7939    0.0000 </r>
       <r>   25.6221    0.0000 </r>
       <r>   27.6755    0.0000 </r>
       <r>   28.0777    0.0000 </r>
       <r>   37.4343    0.0000 </r>
       <r>   38.5624    0.0000 </r>
      </set>
      <set comment="kpoint 36">
       <r>    4.3902    1.0000 </r>
       <r>    6.4095    1.0000 </r>
       <r>    7.5865    1.0000 </r>
       <r>    7.6700    1.0000 </r>
       <r>   10.6129    0.0582 </r>
       <r>   12.9647    0.0000 </r>
       <r>   16.7938    0.0000 </r>
       <r>   25.6223    0.0000 </r>
       <r>   27.6755    0.0000 </r>
       <r>   28.0777    0.0000 </r>
       <r>   37.4344    0.0000 </r>
       <r>   38.5624    0.0000 </r>
      </set>
      <set comment="kpoint 37">
       <r>    4.3903    1.0000 </r>
       <r>    6.4095    1.0000 </r>
       <r>    7.5866    1.0000 </r>
       <r>    7.6700    1.0000 </r>
       <r>   10.6129    0.0582 </r>
       <r>   12.9648    0.0000 </r>
       <r>   16.7939    0.0000 </r>
       <r>   25.6222    0.0000 </r>
       <r>   27.6753    0.0000 </r>
       <r>   28.0777    0.0000 </r>
       <r>   37.4342    0.0000 </r>
       <r>   38.5623    0.0000 </r>
      </set>
      <set comment="kpoint 38">
       <r>    4.3902    1.0000 </r>
       <r>    6.4095    1.0000 </r>
       <r>    7.5866    1.0000 </r>
       <r>    7.6700    1.0000 </r>
       <r>   10.6129    0.0581 </r>
       <r>   12.9648    0.0000 </r>
       <r>   16.7939    0.0000 </r>
       <r>   25.6221    0.0000 </r>
       <r>   27.6755    0.0000 </r>
       <r>   28.0777    0.0000 </r>
       <r>   37.4343    0.0000 </r>
       <r>   38.5624    0.0000 </r>
      </set>
      <set comment="kpoint 39">
       <r>    4.3902    1.0000 </r>
       <r>    6.4095    1.0000 </r>
       <r>    7.5865    1.0000 </r>
       <r>    7.6700    1.0000 </r>
       <r>   10.6129    0.0582 </r>
       <r>   12.9647    0.0000 </r>
       <r>   16.7938    0.0000 </r>
       <r>   25.6222    0.0000 </r>
       <r>   27.6755    0.0000 </r>
       <r>   28.0777    0.0000 </r>
       <r>   37.4344    0.0000 </r>
       <r>   38.5624    0.0000 </r>
      </set>
      <set comment="kpoint 40">
       <r>    4.3903    1.0000 </r>
       <r>    6.4095    1.0000 </r>
       <r>    7.5866    1.0000 </r>
       <r>    7.6700    1.0000 </r>
       <r>   10.6129    0.0582 </r>
       <r>   12.9648    0.0000 </r>
       <r>   16.7939    0.0000 </r>
       <r>   25.6222    0.0000 </r>
       <r>   27.6754    0.0000 </r>
       <r>   28.0777    0.0000 </r>
       <r>   37.4342    0.0000 </r>
       <r>   38.5623    0.0000 </r>
      </set>
      <set comment="kpoint 41">
       <r>    4.4851    1.0000 </r>
       <r>    6.5981    1.0000 </r>
       <r>    7.2481    1.0000 </r>
       <r>    7.6425    1.0000 </r>
       <r>    9.5340    1.0000 </r>
       <r>   12.2008    0.0000 </r>
       <r>   18.9839    0.0000 </r>
       <r>   25.1578    0.0000 </r>
       <r>   27.3728    0.0000 </r>
       <r>   30.7775    0.0000 </r>
       <r>   34.5376    0.0000 </r>
       <r>   38.0474    0.0000 </r>
      </set>
      <set comment="kpoint 42">
       <r>    4.4851    1.0000 </r>
       <r>    6.5981    1.0000 </r>
       <r>    7.2481    1.0000 </r>
       <r>    7.6425    1.0000 </r>
       <r>    9.5340    1.0000 </r>
       <r>   12.2008    0.0000 </r>
       <r>   18.9839    0.0000 </r>
       <r>   25.1578    0.0000 </r>
       <r>   27.3728    0.0000 </r>
       <r>   30.7775    0.0000 </r>
       <r>   34.5376    0.0000 </r>
       <r>   38.0474    0.0000 </r>
      </set>
      <set comment="kpoint 43">
       <r>    4.4851    1.0000 </r>
       <r>    6.5981    1.0000 </r>
       <r>    7.2481    1.0000 </r>
       <r>    7.6425    1.0000 </r>
       <r>    9.5340    1.0000 </r>
       <r>   12.2008    0.0000 </r>
       <r>   18.9839    0.0000 </r>
       <r>   25.1578    0.0000 </r>
       <r>   27.3728    0.0000 </r>
       <r>   30.7775    0.0000 </r>
       <r>   34.5376    0.0000 </r>
       <r>   38.0474    0.0000 </r>
      </set>
      <set comment="kpoint 44">
       <r>    4.4851    1.0000 </r>
       <r>    6.5980    1.0000 </r>
       <r>    7.2481    1.0000 </r>
       <r>    7.6425    1.0000 </r>
       <r>    9.5341    1.0000 </r>
       <r>   12.2007    0.0000 </r>
       <r>   18.9840    0.0000 </r>
       <r>   25.1577    0.0000 </r>
       <r>   27.3728    0.0000 </r>
       <r>   30.7776    0.0000 </r>
       <r>   34.5377    0.0000 </r>
       <r>   38.0474    0.0000 </r>
      </set>
      <set comment="kpoint 45">
       <r>    4.4851    1.0000 </r>
       <r>    6.5980    1.0000 </r>
       <r>    7.2480    1.0000 </r>
       <r>    7.6425    1.0000 </r>
       <r>    9.5341    1.0000 </r>
       <r>   12.2007    0.0000 </r>
       <r>   18.9838    0.0000 </r>
       <r>   25.1579    0.0000 </r>
       <r>   27.3729    0.0000 </r>
       <r>   30.7776    0.0000 </r>
       <r>   34.5376    0.0000 </r>
       <r>   38.0476    0.0000 </r>
      </set>
      <set comment="kpoint 46">
       <r>    4.4851    1.0000 </r>
       <r>    6.5981    1.0000 </r>
       <r>    7.2481    1.0000 </r>
       <r>    7.6425    1.0000 </r>
       <r>    9.5340    1.0000 </r>
       <r>   12.2008    0.0000 </r>
       <r>   18.9839    0.0000 </r>
       <r>   25.1578    0.0000 </r>
       <r>   27.3728    0.0000 </r>
       <r>   30.7775    0.0000 </r>
       <r>   34.5376    0.0000 </r>
       <r>   38.0474    0.0000 </r>
      </set>
      <set comment="kpoint 47">
       <r>    4.4851    1.0000 </r>
       <r>    6.5980    1.0000 </r>
       <r>    7.2481    1.0000 </r>
       <r>    7.6426    1.0000 </r>
       <r>    9.5341    1.0000 </r>
       <r>   12.2007    0.0000 </r>
       <r>   18.9840    0.0000 </r>
       <r>   25.1577    0.0000 </r>
       <r>   27.3728    0.0000 </r>
       <r>   30.7776    0.0000 </r>
       <r>   34.5377    0.0000 </r>
       <r>   38.0474    0.0000 </r>
      </set>
      <set comment="kpoint 48">
       <r>    4.4851    1.0000 </r>
       <r>    6.5980    1.0000 </r>
       <r>    7.2480    1.0000 </r>
       <r>    7.6425    1.0000 </r>
       <r>    9.5341    1.0000 </r>
       <r>   12.2007    0.0000 </r>
       <r>   18.9838    0.0000 </r>
       <r>   25.1579    0.0000 </r>
       <r>   27.3729    0.0000 </r>
       <r>   30.7776    0.0000 </r>
       <r>   34.5376    0.0000 </r>
       <r>   38.0476    0.0000 </r>
      </set>
      <set comment="kpoint 49">
       <r>    4.4851    1.0000 </r>
       <r>    6.5981    1.0000 </r>
       <r>    7.2481    1.0000 </r>
       <r>    7.6425    1.0000 </r>
       <r>    9.5340    1.0000 </r>
       <r>   12.2008    0.0000 </r>
       <r>   18.9839    0.0000 </r>
       <r>   25.1578    0.0000 </r>
       <r>   27.3728    0.0000 </r>
       <r>   30.7775    0.0000 </r>
       <r>   34.5376    0.0000 </r>
       <r>   38.0474    0.0000 </r>
      </set>
      <set comment="kpoint 50">
       <r>    4.4851    1.0000 </r>
       <r>    6.5980    1.0000 </r>
       <r>    7.2481    1.0000 </r>
       <r>    7.6426    1.0000 </r>
       <r>    9.5341    1.0000 </r>
       <r>   12.2007    0.0000 </r>
       <r>   18.9840    0.0000 </r>
       <r>   25.1577    0.0000 </r>
       <r>   27.3728    0.0000 </r>
       <r>   30.7776    0.0000 </r>
       <r>   34.5377    0.0000 </r>
       <r>   38.0474    0.0000 </r>
      </set>
      <set comment="kpoint 51">
       <r>    4.4851    1.0000 </r>
       <r>    6.5980    1.0000 </r>
       <r>    7.2480    1.0000 </r>
       <r>    7.6425    1.0000 </r>
       <r>    9.5341    1.0000 </r>
       <r>   12.2007    0.0000 </r>
       <r>   18.9838    0.0000 </r>
       <r>   25.1578    0.0000 </r>
       <r>   27.3729    0.0000 </r>
       <r>   30.7776    0.0000 </r>
       <r>   34.5376    0.0000 </r>
       <r>   38.0476    0.0000 </r>
      </set>
      <set comment="kpoint 52">
       <r>    4.4851    1.0000 </r>
       <r>    6.5981    1.0000 </r>
       <r>    7.2481    1.0000 </r>
       <r>    7.6425    1.0000 </r>
       <r>    9.5340    1.0000 </r>
       <r>   12.2008    0.0000 </r>
       <r>   18.9839    0.0000 </r>
       <r>   25.1578    0.0000 </r>
       <r>   27.3728    0.0000 </r>
       <r>   30.7775    0.0000 </r>
       <r>   34.5376    0.0000 </r>
       <r>   38.0474    0.0000 </r>
      </set>
      <set comment="kpoint 53">
       <r>    3.3087    1.0000 </r>
       <r>    6.2067    1.0000 </r>
       <r>    7.2957    1.0000 </r>
       <r>    7.9400    1.0000 </r>
       <r>    8.2214    1.0000 </r>
       <r>   10.1132    1.0000 </r>
       <r>   24.4327    0.0000 </r>
       <r>   26.6693    0.0000 </r>
       <r>   30.0605    0.0000 </r>
       <r>   30.1983    0.0000 </r>
       <r>   34.8040    0.0000 </r>
       <r>   37.5488    0.0000 </r>
      </set>
      <set comment="kpoint 54">
       <r>    3.3087    1.0000 </r>
       <r>    6.2067    1.0000 </r>
       <r>    7.2957    1.0000 </r>
       <r>    7.9400    1.0000 </r>
       <r>    8.2214    1.0000 </r>
       <r>   10.1132    1.0000 </r>
       <r>   24.4327    0.0000 </r>
       <r>   26.6693    0.0000 </r>
       <r>   30.0605    0.0000 </r>
       <r>   30.1983    0.0000 </r>
       <r>   34.8040    0.0000 </r>
       <r>   37.5488    0.0000 </r>
      </set>
      <set comment="kpoint 55">
       <r>    3.3087    1.0000 </r>
       <r>    6.2067    1.0000 </r>
       <r>    7.2957    1.0000 </r>
       <r>    7.9400    1.0000 </r>
       <r>    8.2214    1.0000 </r>
       <r>   10.1132    1.0000 </r>
       <r>   24.4327    0.0000 </r>
       <r>   26.6693    0.0000 </r>
       <r>   30.0605    0.0000 </r>
       <r>   30.1983    0.0000 </r>
       <r>   34.8040    0.0000 </r>
       <r>   37.5488    0.0000 </r>
      </set>
      <set comment="kpoint 56">
       <r>    3.3086    1.0000 </r>
       <r>    6.2067    1.0000 </r>
       <r>    7.2956    1.0000 </r>
       <r>    7.9400    1.0000 </r>
       <r>    8.2214    1.0000 </r>
       <r>   10.1132    1.0000 </r>
       <r>   24.4326    0.0000 </r>
       <r>   26.6692    0.0000 </r>
       <r>   30.0605    0.0000 </r>
       <r>   30.1983    0.0000 </r>
       <r>   34.8041    0.0000 </r>
       <r>   37.5489    0.0000 </r>
      </set>
      <set comment="kpoint 57">
       <r>    3.3086    1.0000 </r>
       <r>    6.2067    1.0000 </r>
       <r>    7.2956    1.0000 </r>
       <r>    7.9400    1.0000 </r>
       <r>    8.2214    1.0000 </r>
       <r>   10.1132    1.0000 </r>
       <r>   24.4326    0.0000 </r>
       <r>   26.6692    0.0000 </r>
       <r>   30.0605    0.0000 </r>
       <r>   30.1983    0.0000 </r>
       <r>   34.8041    0.0000 </r>
       <r>   37.5489    0.0000 </r>
      </set>
      <set comment="kpoint 58">
       <r>    3.3086    1.0000 </r>
       <r>    6.2067    1.0000 </r>
       <r>    7.2956    1.0000 </r>
       <r>    7.9400    1.0000 </r>
       <r>    8.2214    1.0000 </r>
       <r>   10.1132    1.0000 </r>
       <r>   24.4326    0.0000 </r>
       <r>   26.6692    0.0000 </r>
       <r>   30.0605    0.0000 </r>
       <r>   30.1983    0.0000 </r>
       <r>   34.8041    0.0000 </r>
       <r>   37.5489    0.0000 </r>
      </set>
      <set comment="kpoint 59">
       <r>    4.1794    1.0000 </r>
       <r>    4.9114    1.0000 </r>
       <r>    8.6250    1.0000 </r>
       <r>    9.5782    1.0000 </r>
       <r>    9.5782    1.0000 </r>
       <r>   10.1084    1.0000 </r>
       <r>   24.7524    0.0000 </r>
       <r>   24.7525    0.0000 </r>
       <r>   25.2664    0.0000 </r>
       <r>   29.1595    0.0000 </r>
       <r>   31.2911    0.0000 </r>
       <r>   39.7663    0.0000 </r>
      </set>
      <set comment="kpoint 60">
       <r>    4.1794    1.0000 </r>
       <r>    4.9114    1.0000 </r>
       <r>    8.6250    1.0000 </r>
       <r>    9.5782    1.0000 </r>
       <r>    9.5782    1.0000 </r>
       <r>   10.1084    1.0000 </r>
       <r>   24.7523    0.0000 </r>
       <r>   24.7525    0.0000 </r>
       <r>   25.2664    0.0000 </r>
       <r>   29.1595    0.0000 </r>
       <r>   31.2911    0.0000 </r>
       <r>   39.7662    0.0000 </r>
      </set>
      <set comment="kpoint 61">
       <r>    4.1794    1.0000 </r>
       <r>    4.9114    1.0000 </r>
       <r>    8.6250    1.0000 </r>
       <r>    9.5782    1.0000 </r>
       <r>    9.5782    1.0000 </r>
       <r>   10.1084    1.0000 </r>
       <r>   24.7524    0.0000 </r>
       <r>   24.7525    0.0000 </r>
       <r>   25.2664    0.0000 </r>
       <r>   29.1595    0.0000 </r>
       <r>   31.2911    0.0000 </r>
       <r>   39.7662    0.0000 </r>
      </set>
      <set comment="kpoint 62">
       <r>    4.4512    1.0000 </r>
       <r>    4.9947    1.0000 </r>
       <r>    8.3507    1.0000 </r>
       <r>    9.4540    1.0000 </r>
       <r>   10.7484    0.0000 </r>
       <r>   13.5074    0.0000 </r>
       <r>   18.8697    0.0000 </r>
       <r>   22.5828    0.0000 </r>
       <r>   23.9593    0.0000 </r>
       <r>   30.4734    0.0000 </r>
       <r>   34.1977    0.0000 </r>
       <r>   38.3298    0.0000 </r>
      </set>
      <set comment="kpoint 63">
       <r>    4.4512    1.0000 </r>
       <r>    4.9947    1.0000 </r>
       <r>    8.3507    1.0000 </r>
       <r>    9.4540    1.0000 </r>
       <r>   10.7484    0.0000 </r>
       <r>   13.5074    0.0000 </r>
       <r>   18.8697    0.0000 </r>
       <r>   22.5828    0.0000 </r>
       <r>   23.9593    0.0000 </r>
       <r>   30.4734    0.0000 </r>
       <r>   34.1977    0.0000 </r>
       <r>   38.3298    0.0000 </r>
      </set>
      <set comment="kpoint 64">
       <r>    4.4512    1.0000 </r>
       <r>    4.9947    1.0000 </r>
       <r>    8.3507    1.0000 </r>
       <r>    9.4540    1.0000 </r>
       <r>   10.7484    0.0000 </r>
       <r>   13.5074    0.0000 </r>
       <r>   18.8697    0.0000 </r>
       <r>   22.5828    0.0000 </r>
       <r>   23.9593    0.0000 </r>
       <r>   30.4734    0.0000 </r>
       <r>   34.1977    0.0000 </r>
       <r>   38.3298    0.0000 </r>
      </set>
      <set comment="kpoint 65">
       <r>    4.4512    1.0000 </r>
       <r>    4.9947    1.0000 </r>
       <r>    8.3507    1.0000 </r>
       <r>    9.4541    1.0000 </r>
       <r>   10.7484    0.0000 </r>
       <r>   13.5074    0.0000 </r>
       <r>   18.8696    0.0000 </r>
       <r>   22.5827    0.0000 </r>
       <r>   23.9595    0.0000 </r>
       <r>   30.4734    0.0000 </r>
       <r>   34.1975    0.0000 </r>
       <r>   38.3298    0.0000 </r>
      </set>
      <set comment="kpoint 66">
       <r>    4.4512    1.0000 </r>
       <r>    4.9947    1.0000 </r>
       <r>    8.3507    1.0000 </r>
       <r>    9.4541    1.0000 </r>
       <r>   10.7483    0.0000 </r>
       <r>   13.5073    0.0000 </r>
       <r>   18.8695    0.0000 </r>
       <r>   22.5828    0.0000 </r>
       <r>   23.9595    0.0000 </r>
       <r>   30.4735    0.0000 </r>
       <r>   34.1975    0.0000 </r>
       <r>   38.3299    0.0000 </r>
      </set>
      <set comment="kpoint 67">
       <r>    4.4512    1.0000 </r>
       <r>    4.9947    1.0000 </r>
       <r>    8.3507    1.0000 </r>
       <r>    9.4540    1.0000 </r>
       <r>   10.7484    0.0000 </r>
       <r>   13.5074    0.0000 </r>
       <r>   18.8697    0.0000 </r>
       <r>   22.5828    0.0000 </r>
       <r>   23.9593    0.0000 </r>
       <r>   30.4734    0.0000 </r>
       <r>   34.1977    0.0000 </r>
       <r>   38.3298    0.0000 </r>
      </set>
      <set comment="kpoint 68">
       <r>    4.4512    1.0000 </r>
       <r>    4.9947    1.0000 </r>
       <r>    8.3507    1.0000 </r>
       <r>    9.4541    1.0000 </r>
       <r>   10.7484    0.0000 </r>
       <r>   13.5074    0.0000 </r>
       <r>   18.8696    0.0000 </r>
       <r>   22.5827    0.0000 </r>
       <r>   23.9595    0.0000 </r>
       <r>   30.4734    0.0000 </r>
       <r>   34.1975    0.0000 </r>
       <r>   38.3299    0.0000 </r>
      </set>
      <set comment="kpoint 69">
       <r>    4.4512    1.0000 </r>
       <r>    4.9947    1.0000 </r>
       <r>    8.3507    1.0000 </r>
       <r>    9.4541    1.0000 </r>
       <r>   10.7483    0.0000 </r>
       <r>   13.5073    0.0000 </r>
       <r>   18.8695    0.0000 </r>
       <r>   22.5828    0.0000 </r>
       <r>   23.9595    0.0000 </r>
       <r>   30.4735    0.0000 </r>
       <r>   34.1975    0.0000 </r>
       <r>   38.3299    0.0000 </r>
      </set>
      <set comment="kpoint 70">
       <r>    4.4512    1.0000 </r>
       <r>    4.9947    1.0000 </r>
       <r>    8.3507    1.0000 </r>
       <r>    9.4540    1.0000 </r>
       <r>   10.7484    0.0000 </r>
       <r>   13.5074    0.0000 </r>
       <r>   18.8697    0.0000 </r>
       <r>   22.5828    0.0000 </r>
       <r>   23.9593    0.0000 </r>
       <r>   30.4734    0.0000 </r>
       <r>   34.1977    0.0000 </r>
       <r>   38.3298    0.0000 </r>
      </set>
      <set comment="kpoint 71">
       <r>    4.4512    1.0000 </r>
       <r>    4.9947    1.0000 </r>
       <r>    8.3507    1.0000 </r>
       <r>    9.4541    1.0000 </r>
       <r>   10.7484    0.0000 </r>
       <r>   13.5074    0.0000 </r>
       <r>   18.8696    0.0000 </r>
       <r>   22.5827    0.0000 </r>
       <r>   23.9595    0.0000 </r>
       <r>   30.4734    0.0000 </r>
       <r>   34.1975    0.0000 </r>
       <r>   38.3298    0.0000 </r>
      </set>
      <set comment="kpoint 72">
       <r>    4.4512    1.0000 </r>
       <r>    4.9947    1.0000 </r>
       <r>    8.3507    1.0000 </r>
       <r>    9.4541    1.0000 </r>
       <r>   10.7483    0.0000 </r>
       <r>   13.5073    0.0000 </r>
       <r>   18.8695    0.0000 </r>
       <r>   22.5828    0.0000 </r>
       <r>   23.9595    0.0000 </r>
       <r>   30.4735    0.0000 </r>
       <r>   34.1975    0.0000 </r>
       <r>   38.3299    0.0000 </r>
      </set>
      <set comment="kpoint 73">
       <r>    4.4512    1.0000 </r>
       <r>    4.9947    1.0000 </r>
       <r>    8.3507    1.0000 </r>
       <r>    9.4540    1.0000 </r>
       <r>   10.7484    0.0000 </r>
       <r>   13.5074    0.0000 </r>
       <r>   18.8697    0.0000 </r>
       <r>   22.5828    0.0000 </r>
       <r>   23.9593    0.0000 </r>
       <r>   30.4734    0.0000 </r>
       <r>   34.1977    0.0000 </r>
       <r>   38.3298    0.0000 </r>
      </set>
      <set comment="kpoint 74">
       <r>    5.0690    1.0000 </r>
       <r>    5.9971    1.0000 </r>
       <r>    7.0982    1.0000 </r>
       <r>    8.7809    1.0000 </r>
       <r>    9.9341    1.0000 </r>
       <r>   14.7903    0.0000 </r>
       <r>   19.0720    0.0000 </r>
       <r>   19.9653    0.0000 </r>
       <r>   26.9202    0.0000 </r>
       <r>   29.1874    0.0000 </r>
       <r>   36.8724    0.0000 </r>
       <r>   37.5889    0.0000 </r>
      </set>
      <set comment="kpoint 75">
       <r>    5.0690    1.0000 </r>
       <r>    5.9971    1.0000 </r>
       <r>    7.0982    1.0000 </r>
       <r>    8.7809    1.0000 </r>
       <r>    9.9341    1.0000 </r>
       <r>   14.7903    0.0000 </r>
       <r>   19.0720    0.0000 </r>
       <r>   19.9652    0.0000 </r>
       <r>   26.9202    0.0000 </r>
       <r>   29.1874    0.0000 </r>
       <r>   36.8724    0.0000 </r>
       <r>   37.5889    0.0000 </r>
      </set>
      <set comment="kpoint 76">
       <r>    5.0690    1.0000 </r>
       <r>    5.9971    1.0000 </r>
       <r>    7.0982    1.0000 </r>
       <r>    8.7809    1.0000 </r>
       <r>    9.9341    1.0000 </r>
       <r>   14.7903    0.0000 </r>
       <r>   19.0720    0.0000 </r>
       <r>   19.9653    0.0000 </r>
       <r>   26.9202    0.0000 </r>
       <r>   29.1874    0.0000 </r>
       <r>   36.8724    0.0000 </r>
       <r>   37.5889    0.0000 </r>
      </set>
      <set comment="kpoint 77">
       <r>    5.0690    1.0000 </r>
       <r>    5.9971    1.0000 </r>
       <r>    7.0983    1.0000 </r>
       <r>    8.7810    1.0000 </r>
       <r>    9.9341    1.0000 </r>
       <r>   14.7902    0.0000 </r>
       <r>   19.0720    0.0000 </r>
       <r>   19.9652    0.0000 </r>
       <r>   26.9203    0.0000 </r>
       <r>   29.1875    0.0000 </r>
       <r>   36.8724    0.0000 </r>
       <r>   37.5890    0.0000 </r>
      </set>
      <set comment="kpoint 78">
       <r>    5.0690    1.0000 </r>
       <r>    5.9971    1.0000 </r>
       <r>    7.0983    1.0000 </r>
       <r>    8.7810    1.0000 </r>
       <r>    9.9341    1.0000 </r>
       <r>   14.7902    0.0000 </r>
       <r>   19.0720    0.0000 </r>
       <r>   19.9652    0.0000 </r>
       <r>   26.9203    0.0000 </r>
       <r>   29.1875    0.0000 </r>
       <r>   36.8724    0.0000 </r>
       <r>   37.5890    0.0000 </r>
      </set>
      <set comment="kpoint 79">
       <r>    5.0690    1.0000 </r>
       <r>    5.9971    1.0000 </r>
       <r>    7.0983    1.0000 </r>
       <r>    8.7810    1.0000 </r>
       <r>    9.9341    1.0000 </r>
       <r>   14.7902    0.0000 </r>
       <r>   19.0720    0.0000 </r>
       <r>   19.9652    0.0000 </r>
       <r>   26.9203    0.0000 </r>
       <r>   29.1875    0.0000 </r>
       <r>   36.8724    0.0000 </r>
       <r>   37.5890    0.0000 </r>
      </set>
      <set comment="kpoint 80">
       <r>    3.9334    1.0000 </r>
       <r>    4.3556    1.0000 </r>
       <r>   10.5229    0.8349 </r>
       <r>   10.9731    0.0000 </r>
       <r>   10.9732    0.0000 </r>
       <r>   12.4577    0.0000 </r>
       <r>   19.0312    0.0000 </r>
       <r>   21.8592    0.0000 </r>
       <r>   21.8594    0.0000 </r>
       <r>   30.2105    0.0000 </r>
       <r>   33.2841    0.0000 </r>
       <r>   38.8906    0.0000 </r>
      </set>
      <set comment="kpoint 81">
       <r>    3.9334    1.0000 </r>
       <r>    4.3556    1.0000 </r>
       <r>   10.5230    0.8349 </r>
       <r>   10.9731    0.0000 </r>
       <r>   10.9732    0.0000 </r>
       <r>   12.4577    0.0000 </r>
       <r>   19.0312    0.0000 </r>
       <r>   21.8592    0.0000 </r>
       <r>   21.8594    0.0000 </r>
       <r>   30.2105    0.0000 </r>
       <r>   33.2841    0.0000 </r>
       <r>   38.8906    0.0000 </r>
      </set>
      <set comment="kpoint 82">
       <r>    3.9334    1.0000 </r>
       <r>    4.3556    1.0000 </r>
       <r>   10.5230    0.8349 </r>
       <r>   10.9731    0.0000 </r>
       <r>   10.9731    0.0000 </r>
       <r>   12.4577    0.0000 </r>
       <r>   19.0312    0.0000 </r>
       <r>   21.8592    0.0000 </r>
       <r>   21.8594    0.0000 </r>
       <r>   30.2105    0.0000 </r>
       <r>   33.2841    0.0000 </r>
       <r>   38.8906    0.0000 </r>
      </set>
      <set comment="kpoint 83">
       <r>    5.1974    1.0000 </r>
       <r>    5.5869    1.0000 </r>
       <r>    6.5017    1.0000 </r>
       <r>    9.0815    1.0000 </r>
       <r>    9.5707    1.0000 </r>
       <r>   12.4417    0.0000 </r>
       <r>   21.0158    0.0000 </r>
       <r>   22.9859    0.0000 </r>
       <r>   26.0238    0.0000 </r>
       <r>   32.5408    0.0000 </r>
       <r>   32.5546    0.0000 </r>
       <r>   38.4450    0.0000 </r>
      </set>
      <set comment="kpoint 84">
       <r>    5.1974    1.0000 </r>
       <r>    5.5869    1.0000 </r>
       <r>    6.5017    1.0000 </r>
       <r>    9.0815    1.0000 </r>
       <r>    9.5707    1.0000 </r>
       <r>   12.4417    0.0000 </r>
       <r>   21.0158    0.0000 </r>
       <r>   22.9859    0.0000 </r>
       <r>   26.0238    0.0000 </r>
       <r>   32.5408    0.0000 </r>
       <r>   32.5546    0.0000 </r>
       <r>   38.4450    0.0000 </r>
      </set>
      <set comment="kpoint 85">
       <r>    5.1974    1.0000 </r>
       <r>    5.5869    1.0000 </r>
       <r>    6.5017    1.0000 </r>
       <r>    9.0815    1.0000 </r>
       <r>    9.5707    1.0000 </r>
       <r>   12.4417    0.0000 </r>
       <r>   21.0158    0.0000 </r>
       <r>   22.9859    0.0000 </r>
       <r>   26.0238    0.0000 </r>
       <r>   32.5407    0.0000 </r>
       <r>   32.5546    0.0000 </r>
       <r>   38.4450    0.0000 </r>
      </set>
      <set comment="kpoint 86">
       <r>    5.1974    1.0000 </r>
[...]
       </set>
       <set comment="band 5">
        <r>  0.0105  0.0015  0.0006  0.0002  0.0687  0.0020  0.0840  0.2511  0.5544 </r>
       </set>
       <set comment="band 6">
        <r>  0.5294  0.0420  0.0157  0.0052  0.0475  0.0094  0.0425  0.1671  0.0030 </r>
       </set>
       <set comment="band 7">
        <r>  0.0000  0.0336  0.3075  0.1951  0.0358  0.0778  0.1856  0.0053  0.0279 </r>
       </set>
       <set comment="band 8">
        <r>  0.1098  0.3483  0.1306  0.0435  0.0001  0.1535  0.0750  0.0118  0.0002 </r>
       </set>
       <set comment="band 9">
        <r>  0.0000  0.0672  0.0154  0.2687  0.1993  0.0255  0.0083  0.0723  0.0858 </r>
       </set>
       <set comment="band 10">
        <r>  0.0000  0.0644  0.0557  0.0954  0.0051  0.0082  0.0405  0.0213  0.0429 </r>
       </set>
       <set comment="band 11">
        <r>  0.0006  0.0102  0.0038  0.0013  0.1874  0.0027  0.0937  0.0962  0.0631 </r>
       </set>
       <set comment="band 12">
        <r>  0.0000  0.0085  0.0040  0.0232  0.0544  0.0016  0.0331  0.0625  0.1047 </r>
       </set>
      </set>
      <set comment="kpoint 102">
       <set comment="band 1">
        <r>  0.0856  0.0531  0.0000  0.0265  0.0001  0.2239  0.0705  0.4479  0.0000 </r>
       </set>
       <set comment="band 2">
        <r>  0.0000  0.0172  0.0015  0.0344  0.0076  0.5038  0.0000  0.2519  0.0609 </r>
       </set>
       <set comment="band 3">
        <r>  0.0000  0.0082  0.1232  0.0164  0.0810  0.0189  0.0000  0.0094  0.6484 </r>
       </set>
       <set comment="band 4">
        <r>  0.0093  0.0158  0.0000  0.0079  0.7816  0.0006  0.0269  0.0013  0.0977 </r>
       </set>
       <set comment="band 5">
        <r>  0.0105  0.0015  0.0000  0.0008  0.0289  0.0418  0.8022  0.0836  0.0036 </r>
       </set>
       <set comment="band 6">
        <r>  0.5294  0.0419  0.0000  0.0210  0.0006  0.0562  0.1002  0.1124  0.0001 </r>
       </set>
       <set comment="band 7">
        <r>  0.0000  0.0336  0.4353  0.0673  0.0216  0.0919  0.0000  0.0460  0.1727 </r>
       </set>
       <set comment="band 8">
        <r>  0.1098  0.3483  0.0000  0.1742  0.1181  0.0354  0.0014  0.0709  0.0148 </r>
       </set>
       <set comment="band 9">
        <r>  0.0000  0.0672  0.1496  0.1345  0.0072  0.2175  0.0000  0.1088  0.0577 </r>
       </set>
       <set comment="band 10">
        <r>  0.0000  0.0644  0.0224  0.1287  0.0131  0.0003  0.0000  0.0001  0.1046 </r>
       </set>
       <set comment="band 11">
        <r>  0.0006  0.0102  0.0000  0.0051  0.0684  0.1217  0.0010  0.2435  0.0086 </r>
       </set>
       <set comment="band 12">
        <r>  0.0000  0.0085  0.0101  0.0171  0.0230  0.0331  0.0000  0.0165  0.1837 </r>
       </set>
      </set>
      <set comment="kpoint 103">
       <set comment="band 1">
        <r>  0.0856  0.0000  0.0199  0.0597  0.0007  0.0020  0.2885  0.0757  0.3756 </r>
       </set>
       <set comment="band 2">
        <r>  0.0000  0.0266  0.0199  0.0066  0.2340  0.0780  0.2881  0.1280  0.0960 </r>
       </set>
       <set comment="band 3">
        <r>  0.0000  0.1422  0.0042  0.0014  0.2982  0.0994  0.2026  0.0900  0.0675 </r>
       </set>
       <set comment="band 4">
        <r>  0.0093  0.0000  0.0059  0.0178  0.0872  0.2615  0.0387  0.3818  0.1389 </r>
       </set>
       <set comment="band 5">
        <r>  0.0105  0.0000  0.0006  0.0017  0.1460  0.4381  0.0207  0.2487  0.1065 </r>
       </set>
       <set comment="band 6">
        <r>  0.5294  0.0000  0.0157  0.0472  0.0045  0.0135  0.0881  0.0116  0.1518 </r>
       </set>
       <set comment="band 7">
        <r>  0.0000  0.5215  0.0111  0.0037  0.2333  0.0778  0.0119  0.0053  0.0040 </r>
       </set>
       <set comment="band 8">
        <r>  0.1098  0.0000  0.1306  0.3918  0.0156  0.0469  0.0157  0.0194  0.1430 </r>
       </set>
       <set comment="band 9">
        <r>  0.0000  0.0032  0.2611  0.0870  0.0765  0.0255  0.1627  0.0723  0.0542 </r>
       </set>
       <set comment="band 10">
        <r>  0.0000  0.0173  0.1486  0.0495  0.0247  0.0082  0.0479  0.0213  0.0160 </r>
       </set>
       <set comment="band 11">
        <r>  0.0006  0.0000  0.0038  0.0115  0.0005  0.0015  0.1884  0.1928  0.0599 </r>
       </set>
       <set comment="band 12">
        <r>  0.0000  0.0001  0.0267  0.0089  0.0049  0.0016  0.1406  0.0624  0.0468 </r>
       </set>
      </set>
      <set comment="kpoint 104">
       <set comment="band 1">
        <r>  0.0856  0.0000  0.0199  0.0597  0.0611  0.1834  0.2178  0.1554  0.1247 </r>
       </set>
       <set comment="band 2">
        <r>  0.0000  0.0098  0.0325  0.0108  0.5559  0.1853  0.0467  0.0208  0.0156 </r>
       </set>
       <set comment="band 3">
        <r>  0.0000  0.0384  0.0820  0.0273  0.0949  0.0316  0.3551  0.1578  0.1184 </r>
       </set>
       <set comment="band 4">
        <r>  0.0093  0.0000  0.0059  0.0178  0.0788  0.2363  0.0626  0.4272  0.1032 </r>
       </set>
       <set comment="band 5">
        <r>  0.0105  0.0000  0.0006  0.0017  0.0697  0.2092  0.0840  0.0439  0.5533 </r>
       </set>
       <set comment="band 6">
        <r>  0.5294  0.0000  0.0157  0.0472  0.0416  0.1248  0.0425  0.0517  0.0089 </r>
       </set>
       <set comment="band 7">
        <r>  0.0000  0.1262  0.3075  0.1025  0.0018  0.0006  0.1856  0.0825  0.0619 </r>
       </set>
       <set comment="band 8">
        <r>  0.1098  0.0000  0.1306  0.3919  0.0003  0.0008  0.0750  0.1645  0.0000 </r>
       </set>
       <set comment="band 9">
        <r>  0.0000  0.3308  0.0154  0.0051  0.2823  0.0941  0.0083  0.0037  0.0028 </r>
       </set>
       <set comment="band 10">
        <r>  0.0000  0.1412  0.0557  0.0186  0.0346  0.0115  0.0405  0.0180  0.0135 </r>
       </set>
       <set comment="band 11">
        <r>  0.0006  0.0000  0.0038  0.0115  0.0320  0.0960  0.0937  0.0029  0.2185 </r>
       </set>
       <set comment="band 12">
        <r>  0.0000  0.0305  0.0040  0.0013  0.1481  0.0494  0.0331  0.0147  0.0110 </r>
       </set>
      </set>
      <set comment="kpoint 105">
       <set comment="band 1">
        <r>  0.0856  0.0531  0.0199  0.0066  0.1643  0.0597  0.2886  0.0180  0.2119 </r>
       </set>
       <set comment="band 2">
        <r>  0.0000  0.0172  0.0199  0.0161  0.3261  0.1853  0.2881  0.0208  0.0040 </r>
       </set>
       <set comment="band 3">
        <r>  0.0000  0.0082  0.0042  0.1354  0.0683  0.0316  0.2026  0.1578  0.2974 </r>
       </set>
       <set comment="band 4">
        <r>  0.0093  0.0158  0.0059  0.0020  0.2152  0.5671  0.0387  0.0762  0.0109 </r>
       </set>
       <set comment="band 5">
        <r>  0.0105  0.0015  0.0006  0.0002  0.0085  0.0623  0.0207  0.6246  0.2441 </r>
       </set>
       <set comment="band 6">
        <r>  0.5294  0.0420  0.0157  0.0052  0.0371  0.0197  0.0881  0.0054  0.1191 </r>
       </set>
       <set comment="band 7">
        <r>  0.0000  0.0336  0.0111  0.4915  0.1129  0.0006  0.0119  0.0825  0.1243 </r>
       </set>
       <set comment="band 8">
        <r>  0.1098  0.3483  0.1306  0.0435  0.1122  0.0414  0.0157  0.0249  0.0465 </r>
       </set>
       <set comment="band 9">
        <r>  0.0000  0.0672  0.2611  0.0230  0.1306  0.0941  0.1627  0.0037  0.0001 </r>
       </set>
       <set comment="band 10">
        <r>  0.0000  0.0644  0.1486  0.0025  0.0018  0.0115  0.0479  0.0180  0.0388 </r>
       </set>
       <set comment="band 11">
        <r>  0.0006  0.0102  0.0038  0.0013  0.0294  0.1608  0.1884  0.0336  0.0310 </r>
       </set>
       <set comment="band 12">
        <r>  0.0000  0.0085  0.0267  0.0005  0.0067  0.0494  0.1405  0.0147  0.0450 </r>
       </set>
      </set>
      <set comment="kpoint 106">
       <set comment="band 1">
        <r>  0.0856  0.0531  0.0199  0.0066  0.1717  0.0524  0.2178  0.2863  0.0142 </r>
       </set>
       <set comment="band 2">
        <r>  0.0000  0.0172  0.0325  0.0035  0.4333  0.0780  0.0467  0.1281  0.1381 </r>
       </set>
       <set comment="band 3">
        <r>  0.0000  0.0082  0.0820  0.0576  0.0005  0.0994  0.3551  0.0901  0.2127 </r>
       </set>
       <set comment="band 4">
        <r>  0.0093  0.0158  0.0059  0.0020  0.1766  0.6057  0.0626  0.0578  0.0054 </r>
       </set>
       <set comment="band 5">
        <r>  0.0105  0.0015  0.0006  0.0002  0.0687  0.0020  0.0840  0.2511  0.5543 </r>
       </set>
       <set comment="band 6">
        <r>  0.5294  0.0419  0.0157  0.0052  0.0475  0.0094  0.0425  0.1671  0.0030 </r>
       </set>
       <set comment="band 7">
        <r>  0.0000  0.0337  0.3075  0.1951  0.0358  0.0778  0.1855  0.0053  0.0279 </r>
       </set>
       <set comment="band 8">
        <r>  0.1098  0.3483  0.1306  0.0435  0.0001  0.1535  0.0751  0.0118  0.0002 </r>
       </set>
       <set comment="band 9">
        <r>  0.0000  0.0672  0.0154  0.2687  0.1993  0.0255  0.0083  0.0723  0.0858 </r>
       </set>
       <set comment="band 10">
        <r>  0.0000  0.0644  0.0557  0.0954  0.0051  0.0082  0.0405  0.0213  0.0429 </r>
       </set>
       <set comment="band 11">
        <r>  0.0006  0.0102  0.0038  0.0013  0.1874  0.0027  0.0937  0.0962  0.0631 </r>
       </set>
       <set comment="band 12">
        <r>  0.0000  0.0085  0.0040  0.0232  0.0544  0.0016  0.0331  0.0625  0.1047 </r>
       </set>
      </set>
      <set comment="kpoint 107">
       <set comment="band 1">
        <r>  0.0336  0.0137  0.0206  0.0069  0.5101  0.0160  0.1913  0.0080  0.0638 </r>
       </set>
       <set comment="band 2">
        <r>  0.0000  0.0171  0.0256  0.0085  0.1944  0.0000  0.6560  0.0000  0.0243 </r>
       </set>
       <set comment="band 3">
        <r>  0.0000  0.0550  0.0000  0.1101  0.0415  0.1245  0.0000  0.2489  0.3319 </r>
       </set>
       <set comment="band 4">
        <r>  0.0306  0.0040  0.0060  0.0020  0.0165  0.5838  0.0062  0.2919  0.0021 </r>
       </set>
       <set comment="band 5">
        <r>  0.0000  0.0000  0.0000  0.0000  0.0549  0.1648  0.0000  0.3296  0.4394 </r>
       </set>
       <set comment="band 6">
        <r>  0.0000  0.1999  0.0000  0.3998  0.0160  0.0479  0.0000  0.0959  0.1278 </r>
       </set>
       <set comment="band 7">
        <r>  0.6655  0.0056  0.0084  0.0028  0.0558  0.0388  0.0209  0.0194  0.0070 </r>
       </set>
       <set comment="band 8">
        <r>  0.0000  0.2170  0.3255  0.1085  0.0345  0.0000  0.1165  0.0000  0.0043 </r>
       </set>
       <set comment="band 9">
        <r>  0.0035  0.1274  0.1911  0.0637  0.2314  0.0548  0.0868  0.0274  0.0289 </r>
       </set>
       <set comment="band 10">
        <r>  0.0000  0.0013  0.0019  0.0006  0.1525  0.0000  0.5150  0.0000  0.0191 </r>
       </set>
       <set comment="band 11">
        <r>  0.1212  0.0789  0.1184  0.0395  0.1238  0.0087  0.0464  0.0043  0.0155 </r>
       </set>
       <set comment="band 12">
        <r>  0.0000  0.0026  0.0000  0.0053  0.0122  0.0365  0.0000  0.0730  0.0973 </r>
       </set>
      </set>
      <set comment="kpoint 108">
       <set comment="band 1">
        <r>  0.0336  0.0137  0.0000  0.0274  0.0613  0.4648  0.0230  0.2324  0.0077 </r>
       </set>
       <set comment="band 2">
        <r>  0.0000  0.0171  0.0256  0.0085  0.0486  0.1458  0.0000  0.2916  0.3887 </r>
       </set>
       <set comment="band 3">
        <r>  0.0000  0.0550  0.0825  0.0275  0.0415  0.1245  0.0000  0.2489  0.3319 </r>
       </set>
       <set comment="band 4">
        <r>  0.0306  0.0040  0.0000  0.0081  0.5270  0.0733  0.1976  0.0367  0.0659 </r>
       </set>
       <set comment="band 5">
        <r>  0.0000  0.0000  0.0000  0.0000  0.2197  0.0000  0.7415  0.0000  0.0275 </r>
       </set>
       <set comment="band 6">
        <r>  0.0000  0.1999  0.2998  0.0999  0.0160  0.0479  0.0000  0.0959  0.1278 </r>
       </set>
       <set comment="band 7">
        <r>  0.6655  0.0056  0.0000  0.0112  0.0834  0.0112  0.0313  0.0056  0.0104 </r>
       </set>
       <set comment="band 8">
        <r>  0.0000  0.2170  0.3255  0.1085  0.0086  0.0259  0.0000  0.0518  0.0691 </r>
       </set>
       <set comment="band 9">
        <r>  0.0035  0.1274  0.0000  0.2548  0.0014  0.2847  0.0005  0.1423  0.0002 </r>
       </set>
       <set comment="band 10">
        <r>  0.0000  0.0013  0.0019  0.0006  0.0381  0.1144  0.0000  0.2289  0.3052 </r>
       </set>
       <set comment="band 11">
        <r>  0.1212  0.0789  0.0000  0.1579  0.0659  0.0667  0.0247  0.0333  0.0082 </r>
       </set>
       <set comment="band 12">
        <r>  0.0000  0.0027  0.0040  0.0013  0.0122  0.0365  0.0000  0.0730  0.0973 </r>
       </set>
      </set>
      <set comment="kpoint 109">
       <set comment="band 1">
        <r>  0.0336  0.0137  0.0206  0.0069  0.2177  0.3084  0.0816  0.1542  0.0272 </r>
       </set>
       <set comment="band 2">
        <r>  0.0000  0.0171  0.0000  0.0342  0.0486  0.1458  0.0000  0.2915  0.3887 </r>
       </set>
       <set comment="band 3">
        <r>  0.0000  0.0550  0.0825  0.0275  0.1659  0.0000  0.5600  0.0000  0.0207 </r>
       </set>
       <set comment="band 4">
        <r>  0.0306  0.0040  0.0060  0.0020  0.3570  0.2433  0.1339  0.1217  0.0446 </r>
       </set>
       <set comment="band 5">
        <r>  0.0000  0.0000  0.0000  0.0000  0.0549  0.1648  0.0000  0.3296  0.4394 </r>
       </set>
       <set comment="band 6">
        <r>  0.0000  0.1999  0.2998  0.0999  0.0639  0.0000  0.2157  0.0000  0.0080 </r>
       </set>
       <set comment="band 7">
        <r>  0.6655  0.0056  0.0084  0.0028  0.0028  0.0918  0.0010  0.0459  0.0003 </r>
       </set>
       <set comment="band 8">
        <r>  0.0000  0.2170  0.0000  0.4340  0.0086  0.0259  0.0000  0.0518  0.0691 </r>
       </set>
       <set comment="band 9">
        <r>  0.0035  0.1274  0.1911  0.0637  0.1964  0.0897  0.0736  0.0449  0.0246 </r>
       </set>
       <set comment="band 10">
        <r>  0.0000  0.0013  0.0000  0.0025  0.0381  0.1145  0.0000  0.2288  0.3051 </r>
       </set>
       <set comment="band 11">
        <r>  0.1212  0.0789  0.1184  0.0395  0.0091  0.1234  0.0034  0.0617  0.0011 </r>
       </set>
       <set comment="band 12">
        <r>  0.0000  0.0026  0.0040  0.0013  0.0486  0.0000  0.1642  0.0000  0.0061 </r>
       </set>
      </set>
      <set comment="kpoint 110">
       <set comment="band 1">
        <r>  0.0336  0.0137  0.0206  0.0069  0.5101  0.0160  0.1913  0.0080  0.0638 </r>
       </set>
       <set comment="band 2">
        <r>  0.0000  0.0171  0.0256  0.0085  0.1944  0.0000  0.6560  0.0000  0.0243 </r>
       </set>
       <set comment="band 3">
        <r>  0.0000  0.0550  0.0000  0.1101  0.0415  0.1245  0.0000  0.2489  0.3319 </r>
       </set>
       <set comment="band 4">
        <r>  0.0306  0.0040  0.0060  0.0020  0.0165  0.5838  0.0062  0.2919  0.0021 </r>
       </set>
       <set comment="band 5">
        <r>  0.0000  0.0000  0.0000  0.0000  0.0549  0.1648  0.0000  0.3296  0.4394 </r>
       </set>
       <set comment="band 6">
        <r>  0.0000  0.1999  0.0000  0.3998  0.0160  0.0479  0.0000  0.0959  0.1278 </r>
       </set>
       <set comment="band 7">
        <r>  0.6655  0.0056  0.0084  0.0028  0.0558  0.0388  0.0209  0.0194  0.0070 </r>
       </set>
       <set comment="band 8">
        <r>  0.0000  0.2170  0.3255  0.1085  0.0345  0.0000  0.1165  0.0000  0.0043 </r>
       </set>
       <set comment="band 9">
        <r>  0.0035  0.1274  0.1911  0.0637  0.2314  0.0548  0.0868  0.0274  0.0289 </r>
       </set>
       <set comment="band 10">
        <r>  0.0000  0.0013  0.0019  0.0006  0.1525  0.0000  0.5150  0.0000  0.0191 </r>
       </set>
       <set comment="band 11">
        <r>  0.1212  0.0789  0.1184  0.0395  0.1238  0.0087  0.0464  0.0043  0.0155 </r>
       </set>
       <set comment="band 12">
        <r>  0.0000  0.0027  0.0000  0.0053  0.0122  0.0365  0.0000  0.0730  0.0973 </r>
       </set>
      </set>
      <set comment="kpoint 111">
       <set comment="band 1">
        <r>  0.0336  0.0137  0.0000  0.0274  0.0613  0.4648  0.0230  0.2324  0.0077 </r>
       </set>
       <set comment="band 2">
        <r>  0.0000  0.0171  0.0256  0.0085  0.0486  0.1458  0.0000  0.2915  0.3887 </r>
       </set>
       <set comment="band 3">
        <r>  0.0000  0.0550  0.0825  0.0275  0.0415  0.1245  0.0000  0.2489  0.3319 </r>
       </set>
       <set comment="band 4">
        <r>  0.0306  0.0040  0.0000  0.0081  0.5270  0.0733  0.1976  0.0367  0.0659 </r>
       </set>
       <set comment="band 5">
        <r>  0.0000  0.0000  0.0000  0.0000  0.2197  0.0000  0.7415  0.0000  0.0275 </r>
       </set>
       <set comment="band 6">
        <r>  0.0000  0.1999  0.2998  0.0999  0.0160  0.0479  0.0000  0.0959  0.1278 </r>
       </set>
       <set comment="band 7">
        <r>  0.6655  0.0056  0.0000  0.0112  0.0834  0.0112  0.0313  0.0056  0.0104 </r>
       </set>
       <set comment="band 8">
        <r>  0.0000  0.2170  0.3255  0.1085  0.0086  0.0259  0.0000  0.0518  0.0691 </r>
       </set>
       <set comment="band 9">
        <r>  0.0035  0.1274  0.0000  0.2548  0.0014  0.2847  0.0005  0.1424  0.0002 </r>
       </set>
       <set comment="band 10">
        <r>  0.0000  0.0013  0.0019  0.0006  0.0382  0.1145  0.0000  0.2288  0.3051 </r>
       </set>
       <set comment="band 11">
        <r>  0.1212  0.0789  0.0000  0.1579  0.0658  0.0666  0.0247  0.0333  0.0082 </r>
       </set>
       <set comment="band 12">
        <r>  0.0000  0.0026  0.0040  0.0013  0.0122  0.0365  0.0000  0.0730  0.0973 </r>
       </set>
      </set>
      <set comment="kpoint 112">
       <set comment="band 1">
        <r>  0.0336  0.0137  0.0206  0.0069  0.2177  0.3084  0.0816  0.1542  0.0272 </r>
       </set>
       <set comment="band 2">
        <r>  0.0000  0.0171  0.0000  0.0342  0.0486  0.1458  0.0000  0.2916  0.3887 </r>
       </set>
       <set comment="band 3">
        <r>  0.0000  0.0550  0.0825  0.0275  0.1659  0.0000  0.5600  0.0000  0.0207 </r>
       </set>
       <set comment="band 4">
        <r>  0.0306  0.0040  0.0060  0.0020  0.3570  0.2434  0.1339  0.1217  0.0446 </r>
       </set>
       <set comment="band 5">
        <r>  0.0000  0.0000  0.0000  0.0000  0.0549  0.1648  0.0000  0.3296  0.4394 </r>
       </set>
       <set comment="band 6">
        <r>  0.0000  0.1999  0.2998  0.1000  0.0639  0.0000  0.2157  0.0000  0.0080 </r>
       </set>
       <set comment="band 7">
        <r>  0.6655  0.0056  0.0084  0.0028  0.0028  0.0918  0.0010  0.0459  0.0003 </r>
       </set>
       <set comment="band 8">
        <r>  0.0000  0.2170  0.0000  0.4340  0.0086  0.0259  0.0000  0.0518  0.0691 </r>
       </set>
       <set comment="band 9">
        <r>  0.0035  0.1274  0.1911  0.0637  0.1964  0.0897  0.0736  0.0449  0.0245 </r>
       </set>
       <set comment="band 10">
        <r>  0.0000  0.0013  0.0000  0.0025  0.0381  0.1144  0.0000  0.2289  0.3052 </r>
       </set>
       <set comment="band 11">
        <r>  0.1212  0.0789  0.1184  0.0395  0.0091  0.1234  0.0034  0.0617  0.0011 </r>
       </set>
       <set comment="band 12">
        <r>  0.0000  0.0026  0.0040  0.0013  0.0487  0.0000  0.1642  0.0000  0.0061 </r>
       </set>
      </set>
     </set>
    </set>
   </array>
  </projected>
 </calculation>
 <structure name="finalpos" >
  <crystal>
   <varray name="basis" >
    <v>       2.43486134       0.00000463       1.40578182 </v>
    <v>       0.81162610       2.29560639       1.40578189 </v>
    <v>       0.00000665       0.00000479       2.81154216 </v>
   </varray>
   <i name="volume">     15.71502483 </i>
   <varray name="rec_basis" >
    <v>       0.41070170      -0.14520573      -0.00000072 </v>
    <v>      -0.00000040       0.43561534      -0.00000074 </v>
    <v>      -0.20535222      -0.14520593       0.35567742 </v>
   </varray>
  </crystal>
  <varray name="positions" >
   <v>      -0.00000002      -0.00000004      -0.00000001 </v>
  </varray>
 </structure>
</modeling>
