       N       E                     dE             d eps       ncg     rms          rms(c)
DAV:   1     0.219682609958E+02    0.21968E+02   -0.37565E+03  7404   0.473E+02
DAV:   2    -0.548886335611E+01   -0.27457E+02   -0.26370E+02  7564   0.123E+02
DAV:   3    -0.576008259045E+01   -0.27122E+00   -0.27043E+00  7716   0.111E+01
DAV:   4    -0.576117547186E+01   -0.10929E-02   -0.10928E-02  7576   0.827E-01
DAV:   5    -0.576118389081E+01   -0.84189E-05   -0.84187E-05  7756   0.650E-02    0.126E+01
DAV:   6    -0.545638703944E+01    0.30480E+00   -0.60127E-01  6708   0.596E+00    0.678E+00
DAV:   7    -0.541679456484E+01    0.39592E-01   -0.14467E-01  7408   0.292E+00    0.241E+00
DAV:   8    -0.541387922578E+01    0.29153E-02   -0.61844E-03  6928   0.602E-01    0.618E-01
DAV:   9    -0.541365262143E+01    0.22660E-03   -0.14260E-04  7092   0.974E-02    0.789E-02
DAV:  10    -0.541365445371E+01   -0.18323E-05   -0.61694E-06  3480   0.204E-02
   1 F= -.54136545E+01 E0= -.54122553E+01  d E =-.279839E-02
