 vasp.6.2.0 18Jan21 (build Feb  1 2022 01:28:57) complex                         
 executed on             LinuxPGI date 2022.05.17  02:28:44
 running on   16 total cores
 distrk:  each k-point on   16 cores,    1 groups
 distr:  one band on NCORE=   4 cores,    4 groups


--------------------------------------------------------------------------------------------------------


 INCAR:
   ALGO = 38
   AMIN = 0.01
   AMIX = 0.2
   BMIX = 0.001
   EDIFF = 1e-06
   EDIFFG = -0.03
   ENCUT = 420
   GGA = Rp
   IBRION = 2
   ISIF = 0
   ISMEAR = 0
   ISPIN = 1
   ISYM = 0
   LASPH = False
   LORBIT = 11
   LREAL = True
   LVTOT = False
   LWAVE = False
   NCORE = 4
   NELM = 80
   NELMIN = 8
   NSW = 300
   PREC = Normal
   SIGMA = 0.05
   SYMPREC = 1e-05

 POTCAR:    PAW_PBE Pt 04Feb2005                  
 POTCAR:    PAW_PBE Pt 04Feb2005                  
   SHA256 =  3ed90460adef76debcff1cfb73ee1349b515b1a3db03439735b44de3a8db7dc8 Pt/POTCAR             
   COPYR  = (c) Copyright 04Feb2005 Georg Kresse                                                    
   COPYR  = This file is part of the software VASP. Any use, copying, and all other rights are regul
   COPYR  = If you do not have a valid VASP license, you may not use, copy or distribute this file. 
   VRHFIN =Pt: s1d9                                                                                 
   LEXCH  = PE                                                                                      
   EATOM  =   729.1176 eV,   53.5886 Ry                                                             
                                                                                                    
   TITEL  = PAW_PBE Pt 04Feb2005                                                                    
   LULTRA =        F    use ultrasoft PP ?                                                          
   IUNSCR =        1    unscreen: 0-lin 1-nonlin 2-no                                               
   RPACOR =    2.330    partial core radius                                                         
   POMASS =  195.080; ZVAL   =   10.000    mass and valenz                                          
   RCORE  =    2.600    outmost cutoff radius                                                       
   RWIGS  =    2.750; RWIGS  =    1.455    wigner-seitz radius (au A)                               
   ENMAX  =  230.283; ENMIN  =  172.712 eV                                                          
   ICORE  =        3    local potential                                                             
   LCOR   =        T    correct aug charges                                                         
   LPAW   =        T    paw PP                                                                      
   EAUG   =  358.966                                                                                
   DEXC   =    0.000                                                                                
   RMAX   =    2.658    core radius for proj-oper                                                   
   RAUG   =    1.300    factor for augmentation sphere                                              
   RDEP   =    2.761    radius for radial grids                                                     
   RDEPT  =    2.203    core radius for aug-charge                                                  
                                                                                                    
   Atomic configuration                                                                             
   16 entries                                                                                       
     n  l   j            E        occ.                                                              
     1  0  0.50    -78401.1885   2.0000                                                             
     2  0  0.50    -13770.7750   2.0000                                                             
     2  1  1.50    -11931.0468   6.0000                                                             
     3  0  0.50     -3234.7234   2.0000                                                             
     3  1  1.50     -2699.2216   6.0000                                                             
     3  2  2.50     -2119.5714  10.0000                                                             
     4  0  0.50      -695.1528   2.0000                                                             
     4  1  1.50      -519.6034   6.0000                                                             
     4  2  2.50      -306.6786  10.0000                                                             
     4  3  3.50       -70.1041  14.0000                                                             
     5  0  0.50      -101.7747   2.0000                                                             
     5  1  1.50       -55.9873   6.0000                                                             
     5  2  2.50        -6.1423   9.0000                                                             
     6  0  0.50        -5.6573   1.0000                                                             
     6  1  1.50        -6.8029   0.0000                                                             
     5  3  2.50        -1.3606   0.0000                                                             
   Description                                                                                      
     l       E           TYP  RCUT    TYP  RCUT                                                     
     2     -6.1423404     23  2.500                                                                 
     2     -7.5029230     23  2.500                                                                 
     0     -5.6573207     23  2.500                                                                 
     0      0.7416693     23  2.500                                                                 
     1     -2.7211652     23  2.600                                                                 
     1     20.4087390     23  2.600                                                                 
     3     -1.3605826     23  2.500                                                                 
  local pseudopotential read in
  partial core-charges read in
  partial kinetic energy density read in
  atomic valenz-charges read in
  non local Contribution for L=            2  read in
    real space projection operators read in
  non local Contribution for L=            2  read in
    real space projection operators read in
  non local Contribution for L=            0  read in
    real space projection operators read in
  non local Contribution for L=            0  read in
    real space projection operators read in
  non local Contribution for L=            1  read in
    real space projection operators read in
  non local Contribution for L=            1  read in
    real space projection operators read in
    PAW grid and wavefunctions read in
 
   number of l-projection  operators is LMAX  =            6
   number of lm-projection operators is LMMAX =           18
 
 -----------------------------------------------------------------------------
|                                                                             |
|           W    W    AA    RRRRR   N    N  II  N    N   GGGG   !!!           |
|           W    W   A  A   R    R  NN   N  II  NN   N  G    G  !!!           |
|           W    W  A    A  R    R  N N  N  II  N N  N  G       !!!           |
|           W WW W  AAAAAA  RRRRR   N  N N  II  N  N N  G  GGG   !            |
|           WW  WW  A    A  R   R   N   NN  II  N   NN  G    G                |
|           W    W  A    A  R    R  N    N  II  N    N   GGGG   !!!           |
|                                                                             |
|     The real-space projection scheme for the treatment of the non-local     |
|     pseudopotentials has been switched on but on file POTCAR I have not     |
|     found any entries, signalling me that you have never performed a        |
|     real-space optimization of all non-local projectors! BE WARNED that     |
|     a calculation using the real-space projection scheme together with      |
|     non-local projectors which were not real-space optimized (according     |
|     to the plane-wave cutoff used in this calculation) might give more      |
|     or less inaccurate results. I hope you know what you are doing.         |
|                                                                             |
 -----------------------------------------------------------------------------

 -----------------------------------------------------------------------------
|                                                                             |
|               ----> ADVICE to this user running VASP <----                  |
|                                                                             |
|     You enforced a specific xc type in the INCAR file but a different       |
|     type was found in the POTCAR file.                                      |
|     I HOPE YOU KNOW WHAT YOU ARE DOING!                                     |
|                                                                             |
 -----------------------------------------------------------------------------

  PAW_PBE Pt 04Feb2005                  :
 energy of atom  1       EATOM= -729.1176
 kinetic energy error for atom=    0.0052 (will be added to EATOM!!)
 
 
 POSCAR: Pt24
  positions in direct lattice
  velocities in cartesian coordinates
 exchange correlation table for  LEXCH =        9
   RHO(1)=    0.500       N(1)  =     2000
   RHO(2)=  100.500       N(2)  =     4000
 


--------------------------------------------------------------------------------------------------------


 ion  position               nearest neighbor table
   1  0.333  0.167  0.361-   2 2.82   4 2.82   2 2.82   4 2.82   3 2.82   3 2.82   8 2.82   5 2.82
                             7 2.82
   2  0.333  0.667  0.361-   1 2.82   3 2.82   1 2.82   3 2.82   4 2.82   4 2.82   7 2.82   6 2.82
                             8 2.82
   3  0.833  0.167  0.361-   2 2.82   4 2.82   4 2.82   2 2.82   1 2.82   1 2.82   6 2.82   7 2.82
                             5 2.82
   4  0.833  0.667  0.361-   1 2.82   3 2.82   3 2.82   1 2.82   2 2.82   2 2.82   5 2.82   8 2.82
                             6 2.82
   5  0.000  0.000  0.417-   9 2.82  12 2.82  10 2.82   8 2.82   6 2.82   6 2.82   8 2.82   7 2.82
                             7 2.82   4 2.82   1 2.82   3 2.82
   6  0.000  0.500  0.417-  10 2.82  11 2.82   9 2.82   7 2.82   5 2.82   5 2.82   7 2.82   8 2.82
                             8 2.82   3 2.82   2 2.82   4 2.82
   7  0.500  0.000  0.417-  11 2.82  10 2.82  12 2.82   8 2.82   6 2.82   8 2.82   6 2.82   5 2.82
                             5 2.82   2 2.82   3 2.82   1 2.82
   8  0.500  0.500  0.417-  12 2.82   9 2.82  11 2.82   7 2.82   5 2.82   7 2.82   5 2.82   6 2.82
                             6 2.82   1 2.82   4 2.82   2 2.82
   9  0.167  0.333  0.472-  15 2.82  13 2.82  14 2.82   5 2.82   8 2.82   6 2.82  12 2.82  10 2.82
                            10 2.82  12 2.82  11 2.82  11 2.82
  10  0.167  0.833  0.472-  16 2.82  13 2.82  14 2.82   6 2.82   7 2.82   5 2.82  11 2.82   9 2.82
                             9 2.82  11 2.82  12 2.82  12 2.82
  11  0.667  0.333  0.472-  15 2.82  16 2.82  13 2.82   7 2.82   6 2.82   8 2.82  12 2.82  10 2.82
                            12 2.82  10 2.82   9 2.82   9 2.82
  12  0.667  0.833  0.472-  15 2.82  16 2.82  14 2.82   8 2.82   5 2.82   7 2.82  11 2.82   9 2.82
                            11 2.82   9 2.82  10 2.82  10 2.82
  13  0.333  0.167  0.528-  17 2.79  20 2.79  19 2.79   9 2.82  10 2.82  11 2.82  15 2.82  16 2.82
                            14 2.82  14 2.82  16 2.82  15 2.82
  14  0.333  0.667  0.528-  18 2.79  20 2.79  19 2.79  10 2.82   9 2.82  12 2.82  15 2.82  16 2.82
                            13 2.82  13 2.82  16 2.82  15 2.82
  15  0.833  0.167  0.528-  17 2.79  18 2.79  19 2.79   9 2.82  12 2.82  11 2.82  13 2.82  16 2.82
                            14 2.82  14 2.82  16 2.82  13 2.82
  16  0.833  0.667  0.528-  17 2.79  18 2.79  20 2.79  10 2.82  12 2.82  11 2.82  13 2.82  15 2.82
                            14 2.82  14 2.82  15 2.82  13 2.82
  17  1.000  0.000  0.582-  15 2.79  13 2.79  16 2.79  18 2.82  19 2.82  20 2.82  20 2.82  19 2.82
                            18 2.82  21 2.90  24 2.90  22 2.90
  18  1.000  0.500  0.582-  15 2.79  16 2.79  14 2.79  19 2.82  17 2.82  20 2.82  20 2.82  17 2.82
                            19 2.82  21 2.90  22 2.90  23 2.90
  19  0.500  0.000  0.582-  15 2.79  13 2.79  14 2.79  18 2.82  20 2.82  17 2.82  17 2.82  20 2.82
                            18 2.82  24 2.90  22 2.90  23 2.90
  20  0.500  0.500  0.582-  13 2.79  16 2.79  14 2.79  19 2.82  18 2.82  17 2.82  17 2.82  18 2.82
                            19 2.82  21 2.90  24 2.90  23 2.90
  21  0.167  0.333  0.640-  24 2.82  22 2.82  23 2.82  23 2.82  22 2.82  24 2.82  20 2.90  18 2.90
                            17 2.90
  22  0.167  0.833  0.640-  24 2.82  21 2.82  23 2.82  23 2.82  21 2.82  24 2.82  19 2.90  18 2.90
                            17 2.90
  23  0.667  0.333  0.640-  22 2.82  21 2.82  24 2.82  24 2.82  21 2.82  22 2.82  19 2.90  20 2.90
                            18 2.90
  24  0.667  0.833  0.640-  22 2.82  21 2.82  23 2.82  23 2.82  21 2.82  22 2.82  19 2.90  20 2.90
                            17 2.90
 

IMPORTANT INFORMATION: All symmetrisations will be switched off!
NOSYMM: (Re-)initialisation of all symmetry stuff for point group C_1.


----------------------------------------------------------------------------------------

                                     Primitive cell                                     

  volume of cell :    1140.0304

  direct lattice vectors                    reciprocal lattice vectors
     5.637194000  0.000000000  0.000000000     0.177393221  0.102418028 -0.000000000
    -2.818597000  4.881953000  0.000000000     0.000000000  0.204836056  0.000000000
     0.000000000  0.000000000 41.424746000     0.000000000 -0.000000000  0.024140160

  length of vectors
     5.637194000  5.637193818 41.424746000     0.204836050  0.204836056  0.024140160

  position of ions in fractional coordinates (direct lattice)
     0.333333000  0.166667000  0.361111000
     0.333333000  0.666667000  0.361111000
     0.833333000  0.166667000  0.361111000
     0.833333000  0.666667000  0.361111000
     0.000000000  0.000000000  0.416667000
     0.000000000  0.500000000  0.416667000
     0.500000000  0.000000000  0.416667000
     0.500000000  0.500000000  0.416667000
     0.166667000  0.333333000  0.472222000
     0.166667000  0.833333000  0.472222000
     0.666667000  0.333333000  0.472222000
     0.666667000  0.833333000  0.472222000
     0.333285866  0.166643884  0.527714109
     0.333321604  0.666661389  0.527719956
     0.833363758  0.166655004  0.527708302
     0.833361522  0.666707959  0.527713950
     0.999952102  0.000060469  0.582382695
     0.999845611  0.499834544  0.582410562
     0.500152555  0.000148578  0.582422796
     0.500034608  0.499923188  0.582421651
     0.166684383  0.333359200  0.640335839
     0.166694226  0.833329133  0.640376679
     0.666651730  0.333320137  0.640477283
     0.666628257  0.833320106  0.640381249

  ion indices of the primitive-cell ions
   primitive index   ion index
                 1           1
                 2           2
                 3           3
                 4           4
                 5           5
                 6           6
                 7           7
                 8           8
                 9           9
                10          10
                11          11
                12          12
                13          13
                14          14
                15          15
                16          16
                17          17
                18          18
                19          19
                20          20
                21          21
                22          22
                23          23
                24          24

----------------------------------------------------------------------------------------

 
 
 KPOINTS: Automatic kpoint scheme                 

Automatic generation of k-mesh.
 Grid dimensions read from file:
 generate k-points for:    2    2    1

 Generating k-lattice:

  Cartesian coordinates                     Fractional coordinates (reciprocal lattice)
     0.088696610  0.051209014 -0.000000000     0.500000000  0.000000000  0.000000000
     0.000000000  0.102418028  0.000000000     0.000000000  0.500000000  0.000000000
     0.000000000 -0.000000000  0.024140160     0.000000000  0.000000000  1.000000000

  Length of vectors
     0.102418025  0.102418028  0.024140160

  Shift w.r.t. Gamma in fractional coordinates (k-lattice)
     0.000000000  0.000000000  0.000000000

 
 Subroutine IBZKPT returns following result:
 ===========================================
 
 Found      4 irreducible k-points:
 
 Following reciprocal coordinates:
            Coordinates               Weight
  0.000000  0.000000  0.000000      1.000000
  0.500000  0.000000  0.000000      1.000000
  0.000000  0.500000  0.000000      1.000000
  0.500000  0.500000  0.000000      1.000000
 
 Following cartesian coordinates:
            Coordinates               Weight
  0.000000  0.000000  0.000000      1.000000
  0.088697  0.051209  0.000000      1.000000
  0.000000  0.102418  0.000000      1.000000
  0.088697  0.153627  0.000000      1.000000
 


--------------------------------------------------------------------------------------------------------




 Dimension of arrays:
   k-points           NKPTS =      4   k-points in BZ     NKDIM =      4   number of bands    NBANDS=    144
   number of dos      NEDOS =    301   number of ions     NIONS =     24
   non local maximal  LDIM  =      6   non local SUM 2l+1 LMDIM =     18
   total plane-waves  NPLWV = 164640
   max r-space proj   IRMAX =   1733   max aug-charges    IRDMAX=   8945
   dimension x,y,z NGX =    28 NGY =   28 NGZ =  210
   dimension x,y,z NGXF=    56 NGYF=   56 NGZF=  420
   support grid    NGXF=    56 NGYF=   56 NGZF=  420
   ions per type =              24
   NGX,Y,Z   is equivalent  to a cutoff of   8.26,  8.26,  8.43 a.u.
   NGXF,Y,Z  is equivalent  to a cutoff of  16.51, 16.51, 16.86 a.u.

 SYSTEM =  unknown system                          
 POSCAR =  Pt24                                    

 Startparameter for this run:
   NWRITE =      2    write-flag & timer
   PREC   = normal    normal or accurate (medium, high low for compatibility)
   ISTART =      0    job   : 0-new  1-cont  2-samecut
   ICHARG =      2    charge: 1-file 2-atom 10-const
   ISPIN  =      1    spin polarized calculation?
   LNONCOLLINEAR =      F non collinear calculations
   LSORBIT =      F    spin-orbit coupling
   INIWAV =      1    electr: 0-lowe 1-rand  2-diag
   LASPH  =      F    aspherical Exc in radial PAW
   METAGGA=      F    non-selfconsistent MetaGGA calc.

 Electronic Relaxation 1
   ENCUT  =  420.0 eV  30.87 Ry    5.56 a.u.   9.42  9.42 69.22*2*pi/ulx,y,z
   ENINI  =  420.0     initial cutoff
   ENAUG  =  359.0 eV  augmentation charge cutoff
   NELM   =     80;   NELMIN=  8; NELMDL=  0     # of ELM steps 
   EDIFF  = 0.1E-05   stopping-criterion for ELM
   LREAL  =      T    real-space projection
   NLSPLINE    = F    spline interpolate recip. space projectors
   LCOMPAT=      F    compatible to vasp.4.4
   GGA_COMPAT  = T    GGA compatible to vasp.4.4-vasp.4.6
   LMAXPAW     = -100 max onsite density
   LMAXMIX     =    2 max onsite mixed and CHGCAR
   VOSKOWN=      0    Vosko Wilk Nusair interpolation
   ROPT   =    0.00000
 Ionic relaxation
   EDIFFG = -.3E-01   stopping-criterion for IOM
   NSW    =    300    number of steps for IOM
   NBLOCK =      1;   KBLOCK =    300    inner block; outer block 
   IBRION =      2    ionic relax: 0-MD 1-quasi-New 2-CG
   NFREE  =      1    steps in history (QN), initial steepest desc. (CG)
   ISIF   =      0    stress and relaxation
   IWAVPR =     11    prediction:  0-non 1-charg 2-wave 3-comb
   ISYM   =      0    0-nonsym 1-usesym 2-fastsym
   LCORR  =      T    Harris-Foulkes like correction to forces

   POTIM  = 0.5000    time-step for ionic-motion
   TEIN   =    0.0    initial temperature
   TEBEG  =    0.0;   TEEND  =   0.0 temperature during run
   SMASS  =  -3.00    Nose mass-parameter (am)
   estimated Nose-frequenzy (Omega)   =  0.10E-29 period in steps = 0.13E+47 mass=  -0.726E-27a.u.
   SCALEE = 1.0000    scale energy and forces
   NPACO  =    256;   APACO  = 16.0  distance and # of slots for P.C.
   PSTRESS=    0.0 pullay stress

  Mass of Ions in am
   POMASS = 195.08
  Ionic Valenz
   ZVAL   =  10.00
  Atomic Wigner-Seitz radii
   RWIGS  =  -1.00
  virtual crystal weights 
   VCA    =   1.00
   NELECT =     240.0000    total number of electrons
   NUPDOWN=      -1.0000    fix difference up-down

 DOS related values:
   EMIN   =  10.00;   EMAX   =-10.00  energy-range for DOS
   EFERMI =   0.00
   ISMEAR =     0;   SIGMA  =   0.05  broadening in eV -4-tet -1-fermi 0-gaus

 Electronic relaxation 2 (details)
   IALGO  =     38    algorithm
   LDIAG  =      T    sub-space diagonalisation (order eigenvalues)
   LSUBROT=      F    optimize rotation matrix (better conditioning)
   TURBO    =      0    0=normal 1=particle mesh
   IRESTART =      0    0=no restart 2=restart with 2 vectors
   NREBOOT  =      0    no. of reboots
   NMIN     =      0    reboot dimension
   EREF     =   0.00    reference energy to select bands
   IMIX   =      4    mixing-type and parameters
     AMIX     =   0.20;   BMIX     =  0.00
     AMIX_MAG =   0.80;   BMIX_MAG =  0.00
     AMIN     =   0.01
     WC   =   100.;   INIMIX=   1;  MIXPRE=   1;  MAXMIX= -45

 Intra band minimization:
   WEIMIN = 0.0010     energy-eigenvalue tresh-hold
   EBREAK =  0.17E-08  absolut break condition
   DEPER  =   0.30     relativ break condition  

   TIME   =   0.40     timestep for ELM

  volume/ion in A,a.u.               =      47.50       320.55
  Fermi-wavevector in a.u.,A,eV,Ry     =   0.973882  1.840371 12.904399  0.948447
  Thomas-Fermi vector in A             =   2.104297
 
 Write flags
   LWAVE        =      F    write WAVECAR
   LDOWNSAMPLE  =      F    k-point downsampling of WAVECAR
   LCHARG       =      T    write CHGCAR
   LVTOT        =      F    write LOCPOT, total local potential
   LVHAR        =      F    write LOCPOT, Hartree potential only
   LELF         =      F    write electronic localiz. function (ELF)
   LORBIT       =     11    0 simple, 1 ext, 2 COOP (PROOUT), +10 PAW based schemes


 Dipole corrections
   LMONO  =      F    monopole corrections only (constant potential shift)
   LDIPOL =      F    correct potential (dipole corrections)
   IDIPOL =      0    1-x, 2-y, 3-z, 4-all directions 
   EPSILON=  1.0000000 bulk dielectric constant

 Exchange correlation treatment:
   GGA     =    RP    GGA type
   LEXCH   =     9    internal setting for exchange type
   VOSKOWN=      0    Vosko Wilk Nusair interpolation
   LHFCALC =     F    Hartree Fock is set to
   LHFONE  =     F    Hartree Fock one center treatment
   AEXX    =    0.0000 exact exchange contribution

 Linear response parameters
   LEPSILON=     F    determine dielectric tensor
   LRPA    =     F    only Hartree local field effects (RPA)
   LNABLA  =     F    use nabla operator in PAW spheres
   LVEL    =     F    velocity operator in full k-point grid
   LINTERFAST=   F  fast interpolation
   KINTER  =     0    interpolate to denser k-point grid
   CSHIFT  =0.1000    complex shift for real part using Kramers Kronig
   OMEGAMAX=  -1.0    maximum frequency
   DEG_THRESHOLD= 0.2000000E-02 threshold for treating states as degnerate
   RTIME   =   -0.100 relaxation time in fs
  (WPLASMAI=    0.000 imaginary part of plasma frequency in eV, 0.658/RTIME)
   DFIELD  = 0.0000000 0.0000000 0.0000000 field for delta impulse in time
 
 Orbital magnetization related:
   ORBITALMAG=     F  switch on orbital magnetization
   LCHIMAG   =     F  perturbation theory with respect to B field
   DQ        =  0.001000  dq finite difference perturbation B field
   LLRAUG    =     F  two centre corrections for induced B field



--------------------------------------------------------------------------------------------------------


 conjugate gradient relaxation of ions
   using selective dynamics as specified on POSCAR
 charge density and potential will be updated during run
 non-spin polarized calculation
 Variant of blocked Davidson
 Davidson routine will perform the subspace rotation
 perform sub-space diagonalisation
    after iterative eigenvector-optimisation
 modified Broyden-mixing scheme, WC =      100.0
 initial mixing is a Kerker type mixing with AMIX =  0.2000 and BMIX =      0.0010
 Hartree-type preconditioning will be used
 using additional bands            24
 real space projection scheme for non local part
 use partial core corrections
 calculate Harris-corrections to forces 
   (improved forces if not selfconsistent)
 use gradient corrections 
 use of overlap-Matrix (Vanderbilt PP)
 Gauss-broadening in eV      SIGMA  =   0.05


--------------------------------------------------------------------------------------------------------


  energy-cutoff  :      420.00
  volume of cell :     1140.03
      direct lattice vectors                 reciprocal lattice vectors
     5.637194000  0.000000000  0.000000000     0.177393221  0.102418028 -0.000000000
    -2.818597000  4.881953000  0.000000000     0.000000000  0.204836056  0.000000000
     0.000000000  0.000000000 41.424746000     0.000000000 -0.000000000  0.024140160

  length of vectors
     5.637194000  5.637193818 41.424746000     0.204836050  0.204836056  0.024140160


 
 k-points in units of 2pi/SCALE and weight: Automatic kpoint scheme                 
   0.00000000  0.00000000  0.00000000       0.250
   0.08869661  0.05120901  0.00000000       0.250
   0.00000000  0.10241803  0.00000000       0.250
   0.08869661  0.15362704  0.00000000       0.250
 
 k-points in reciprocal lattice and weights: Automatic kpoint scheme                 
   0.00000000  0.00000000  0.00000000       0.250
   0.50000000  0.00000000  0.00000000       0.250
   0.00000000  0.50000000  0.00000000       0.250
   0.50000000  0.50000000  0.00000000       0.250
 
 position of ions in fractional coordinates (direct lattice) 
   0.33333300  0.16666700  0.36111100
   0.33333300  0.66666700  0.36111100
   0.83333300  0.16666700  0.36111100
   0.83333300  0.66666700  0.36111100
   0.00000000  0.00000000  0.41666700
   0.00000000  0.50000000  0.41666700
   0.50000000  0.00000000  0.41666700
   0.50000000  0.50000000  0.41666700
   0.16666700  0.33333300  0.47222200
   0.16666700  0.83333300  0.47222200
   0.66666700  0.33333300  0.47222200
   0.66666700  0.83333300  0.47222200
   0.33328587  0.16664388  0.52771411
   0.33332160  0.66666139  0.52771996
   0.83336376  0.16665500  0.52770830
   0.83336152  0.66670796  0.52771395
   0.99995210  0.00006047  0.58238269
   0.99984561  0.49983454  0.58241056
   0.50015256  0.00014858  0.58242280
   0.50003461  0.49992319  0.58242165
   0.16668438  0.33335920  0.64033584
   0.16669423  0.83332913  0.64037668
   0.66665173  0.33332014  0.64047728
   0.66662826  0.83332011  0.64038125
 
 position of ions in cartesian coordinates  (Angst):
   1.40929568  0.81366046 14.95893145
  -0.00000282  3.25463696 14.95893145
   4.22789268  0.81366046 14.95893145
   2.81859418  3.25463696 14.95893145
   0.00000000  0.00000000 17.26032464
  -1.40929850  2.44097650 17.26032464
   2.81859700  0.00000000 17.26032464
   1.40929850  2.44097650 17.26032464
   0.00000282  1.62731604 19.56167641
  -1.40929568  4.06829254 19.56167641
   2.81859982  1.62731604 19.56167641
   1.40930132  4.06829254 19.56167641
   1.40909513  0.81354761 21.86042292
  -0.00005125  3.25460957 21.86066513
   4.22809988  0.81360189 21.86018239
   2.81863952  3.25483692 21.86041633
   5.63675355  0.00029521 24.12505520
   4.22749153  2.44016875 24.12620960
   2.81903820  0.00072535 24.12671640
   1.40971010  2.44060151 24.12666894
   0.00002697  1.62744394 26.52574948
  -1.40913130  4.06827366 26.52744128
   2.81854999  1.62725324 26.53160875
   1.40911926  4.06822959 26.52763059
 


--------------------------------------------------------------------------------------------------------


 k-point   1 :   0.0000 0.0000 0.0000  plane waves:   22327
 k-point   2 :   0.5000 0.0000 0.0000  plane waves:   22250
 k-point   3 :   0.0000 0.5000 0.0000  plane waves:   22250
 k-point   4 :   0.5000 0.5000 0.0000  plane waves:   22250

 maximum and minimum number of plane-waves per node :      5595     5547

 maximum number of plane-waves:     22327
 maximum index in each direction: 
   IXMAX=    9   IYMAX=    9   IZMAX=   69
   IXMIN=   -9   IYMIN=   -9   IZMIN=  -69


 real space projection operators:
  total allocation   :       5508.56 KBytes
  max/ min on nodes  :       1378.97       1375.31


 parallel 3D FFT for wavefunctions:
    minimum data exchange during FFTs selected (reduces bandwidth)
 parallel 3D FFT for charge:
    minimum data exchange during FFTs selected (reduces bandwidth)


 total amount of memory used by VASP MPI-rank0    56097. kBytes
=======================================================================

   base      :      30000. kBytes
   nonlr-proj:       2389. kBytes
   fftplans  :       4331. kBytes
   grid      :       6179. kBytes
   one-center:         93. kBytes
   wavefun   :      13105. kBytes
 
     INWAV:  cpu time    0.0001: real time    0.0001
 Broyden mixing: mesh for mixing (old mesh)
   NGX = 19   NGY = 19   NGZ =139
  (NGX  = 56   NGY  = 56   NGZ  =420)
  gives a total of  50179 points

 initial charge density was supplied:
 charge density of overlapping atoms calculated
 number of electron     240.0000000 magnetization 
 keeping initial charge density in first step


--------------------------------------------------------------------------------------------------------


 Maximum index for non-local projection operator           432
 Maximum index for augmentation-charges           764 (set IRDMAX)


--------------------------------------------------------------------------------------------------------


 First call to EWALD:  gamma=   0.170
 Maximum number of real-space cells 5x 5x 1
 Maximum number of reciprocal cells 2x 2x 9

    FEWALD:  cpu time    0.0047: real time    0.0047


--------------------------------------- Iteration      1(   1)  ---------------------------------------


    POTLOK:  cpu time    0.1310: real time    0.1351
    SETDIJ:  cpu time    0.0106: real time    0.0106
     EDDAV:  cpu time    3.4251: real time    3.4324
       DOS:  cpu time    0.0016: real time    0.0016
    --------------------------------------------
      LOOP:  cpu time    3.5684: real time    3.5798

 eigenvalue-minimisations  :  1152
 total energy-change (2. order) : 0.1592186E+04  (-0.9226224E+04)
 number of electron     240.0000000 magnetization 
 augmentation part      240.0000000 magnetization 

 Free energy of the ion-electron system (eV)
  ---------------------------------------------------
  alpha Z        PSCENC =       480.28159767
  Ewald energy   TEWEN  =    274036.36663083
  -Hartree energ DENC   =   -292251.16618819
  -exchange      EXHF   =         0.00000000
  -V(xc)+E(xc)   XCENC  =        74.11150258
  PAW double counting   =     16720.94281017   -16018.99855229
  entropy T*S    EENTRO =        -0.01497244
  eigenvalues    EBANDS =      1071.00252372
  atomic energy  EATOM  =     17479.66102378
  Solvation  Ediel_sol  =         0.00000000
  ---------------------------------------------------
  free energy    TOTEN  =      1592.18637580 eV

  energy without entropy =     1592.20134825  energy(sigma->0) =     1592.19386203


--------------------------------------------------------------------------------------------------------




--------------------------------------- Iteration      1(   2)  ---------------------------------------


     EDDAV:  cpu time    3.9712: real time    3.9814
       DOS:  cpu time    0.0017: real time    0.0017
    --------------------------------------------
      LOOP:  cpu time    3.9728: real time    3.9831

 eigenvalue-minimisations  :  1416
 total energy-change (2. order) :-0.1600881E+04  (-0.1459127E+04)
 number of electron     240.0000000 magnetization 
 augmentation part      240.0000000 magnetization 

 Free energy of the ion-electron system (eV)
  ---------------------------------------------------
  alpha Z        PSCENC =       480.28159767
  Ewald energy   TEWEN  =    274036.36663083
  -Hartree energ DENC   =   -292251.16618819
  -exchange      EXHF   =         0.00000000
  -V(xc)+E(xc)   XCENC  =        74.11150258
  PAW double counting   =     16720.94281017   -16018.99855229
  entropy T*S    EENTRO =        -0.02667023
  eigenvalues    EBANDS =      -529.86677082
  atomic energy  EATOM  =     17479.66102378
  Solvation  Ediel_sol  =         0.00000000
  ---------------------------------------------------
  free energy    TOTEN  =        -8.69461653 eV

  energy without entropy =       -8.66794629  energy(sigma->0) =       -8.68128141


--------------------------------------------------------------------------------------------------------




--------------------------------------- Iteration      1(   3)  ---------------------------------------


     EDDAV:  cpu time    3.8950: real time    3.9053
       DOS:  cpu time    0.0018: real time    0.0018
    --------------------------------------------
      LOOP:  cpu time    3.8968: real time    3.9070

 eigenvalue-minimisations  :  1376
 total energy-change (2. order) :-0.1226085E+03  (-0.1119202E+03)
 number of electron     240.0000000 magnetization 
 augmentation part      240.0000000 magnetization 

 Free energy of the ion-electron system (eV)
  ---------------------------------------------------
  alpha Z        PSCENC =       480.28159767
  Ewald energy   TEWEN  =    274036.36663083
  -Hartree energ DENC   =   -292251.16618819
  -exchange      EXHF   =         0.00000000
  -V(xc)+E(xc)   XCENC  =        74.11150258
  PAW double counting   =     16720.94281017   -16018.99855229
  entropy T*S    EENTRO =        -0.09598509
  eigenvalues    EBANDS =      -652.40597884
  atomic energy  EATOM  =     17479.66102378
  Solvation  Ediel_sol  =         0.00000000
  ---------------------------------------------------
  free energy    TOTEN  =      -131.30313940 eV

  energy without entropy =     -131.20715431  energy(sigma->0) =     -131.25514686


--------------------------------------------------------------------------------------------------------




--------------------------------------- Iteration      1(   4)  ---------------------------------------


     EDDAV:  cpu time    4.3496: real time    4.3575
       DOS:  cpu time    0.0028: real time    0.0028
    --------------------------------------------
      LOOP:  cpu time    4.3524: real time    4.3603

 eigenvalue-minimisations  :  1584
 total energy-change (2. order) :-0.5555904E+01  (-0.5258879E+01)
 number of electron     240.0000000 magnetization 
 augmentation part      240.0000000 magnetization 

 Free energy of the ion-electron system (eV)
  ---------------------------------------------------
  alpha Z        PSCENC =       480.28159767
  Ewald energy   TEWEN  =    274036.36663083
  -Hartree energ DENC   =   -292251.16618819
  -exchange      EXHF   =         0.00000000
  -V(xc)+E(xc)   XCENC  =        74.11150258
  PAW double counting   =     16720.94281017   -16018.99855229
  entropy T*S    EENTRO =        -0.10751415
  eigenvalues    EBANDS =      -657.95035425
  atomic energy  EATOM  =     17479.66102378
  Solvation  Ediel_sol  =         0.00000000
  ---------------------------------------------------
  free energy    TOTEN  =      -136.85904387 eV

  energy without entropy =     -136.75152972  energy(sigma->0) =     -136.80528680


--------------------------------------------------------------------------------------------------------




--------------------------------------- Iteration      1(   5)  ---------------------------------------


     EDDAV:  cpu time    3.8893: real time    3.8968
       DOS:  cpu time    0.0019: real time    0.0019
    CHARGE:  cpu time    0.2152: real time    0.2155
    MIXING:  cpu time    0.0027: real time    0.0027
    --------------------------------------------
      LOOP:  cpu time    4.1090: real time    4.1168

 eigenvalue-minimisations  :  1376
 total energy-change (2. order) :-0.1331018E+00  (-0.1307033E+00)
 number of electron     240.0000000 magnetization 
 augmentation part       70.2480566 magnetization 

 Broyden mixing:
  rms(total) = 0.48085E+01    rms(broyden)= 0.48084E+01
  rms(prec ) = 0.48372E+01
  weight for this iteration     100.00

 Free energy of the ion-electron system (eV)
  ---------------------------------------------------
  alpha Z        PSCENC =       480.28159767
  Ewald energy   TEWEN  =    274036.36663083
  -Hartree energ DENC   =   -292251.16618819
  -exchange      EXHF   =         0.00000000
  -V(xc)+E(xc)   XCENC  =        74.11150258
  PAW double counting   =     16720.94281017   -16018.99855229
  entropy T*S    EENTRO =        -0.10833610
  eigenvalues    EBANDS =      -658.08263409
  atomic energy  EATOM  =     17479.66102378
  Solvation  Ediel_sol  =         0.00000000
  ---------------------------------------------------
  free energy    TOTEN  =      -136.99214567 eV

  energy without entropy =     -136.88380957  energy(sigma->0) =     -136.93797762


--------------------------------------------------------------------------------------------------------




--------------------------------------- Iteration      1(   6)  ---------------------------------------


    POTLOK:  cpu time    0.1247: real time    0.1248
    SETDIJ:  cpu time    0.0104: real time    0.0104
     EDDAV:  cpu time    4.0607: real time    4.0656
       DOS:  cpu time    0.0016: real time    0.0016
    CHARGE:  cpu time    0.2116: real time    0.2118
    MIXING:  cpu time    0.0028: real time    0.0028
    --------------------------------------------
      LOOP:  cpu time    4.4118: real time    4.4171

 eigenvalue-minimisations  :  1456
 total energy-change (2. order) :-0.4532425E+02  (-0.6865123E+01)
 number of electron     239.9999969 magnetization 
 augmentation part       72.4233965 magnetization 

 Broyden mixing:
  rms(total) = 0.79962E+01    rms(broyden)= 0.79962E+01
  rms(prec ) = 0.91059E+01
  weight for this iteration     100.00

 eigenvalues of (default mixing * dielectric matrix)
  average eigenvalue GAMMA=   0.1321
  0.1321

 Free energy of the ion-electron system (eV)
  ---------------------------------------------------
  alpha Z        PSCENC =       480.28159767
  Ewald energy   TEWEN  =    274036.36663083
  -Hartree energ DENC   =   -291575.50058761
  -exchange      EXHF   =         0.00000000
  -V(xc)+E(xc)   XCENC  =        70.65450606
  PAW double counting   =     17516.14808198   -16831.32292578
  entropy T*S    EENTRO =        -0.04231278
  eigenvalues    EBANDS =     -1358.56240792
  atomic energy  EATOM  =     17479.66102378
  Solvation  Ediel_sol  =         0.00000000
  ---------------------------------------------------
  free energy    TOTEN  =      -182.31639378 eV

  energy without entropy =     -182.27408100  energy(sigma->0) =     -182.29523739


--------------------------------------------------------------------------------------------------------




--------------------------------------- Iteration      1(   7)  ---------------------------------------


    POTLOK:  cpu time    0.1212: real time    0.1213
    SETDIJ:  cpu time    0.0105: real time    0.0106
     EDDAV:  cpu time    4.0305: real time    4.0408
       DOS:  cpu time    0.0027: real time    0.0027
    CHARGE:  cpu time    0.2035: real time    0.2038
    MIXING:  cpu time    0.0031: real time    0.0031
    --------------------------------------------
      LOOP:  cpu time    4.3717: real time    4.3823

 eigenvalue-minimisations  :  1440
 total energy-change (2. order) :-0.1273079E+03  (-0.5051799E+01)
 number of electron     239.9999950 magnetization 
 augmentation part       71.4370112 magnetization 

 Broyden mixing:
  rms(total) = 0.11599E+02    rms(broyden)= 0.11599E+02
  rms(prec ) = 0.14418E+02
  weight for this iteration     100.00

 eigenvalues of (default mixing * dielectric matrix)
  average eigenvalue GAMMA=   0.2034
  0.2034  0.2034

 Free energy of the ion-electron system (eV)
  ---------------------------------------------------
  alpha Z        PSCENC =       480.28159767
  Ewald energy   TEWEN  =    274036.36663083
  -Hartree energ DENC   =   -291340.07498218
  -exchange      EXHF   =         0.00000000
  -V(xc)+E(xc)   XCENC  =        70.74451779
  PAW double counting   =     17465.77025324   -16780.14083903
  entropy T*S    EENTRO =        -0.02905019
  eigenvalues    EBANDS =     -1722.20346636
  atomic energy  EATOM  =     17479.66102378
  Solvation  Ediel_sol  =         0.00000000
  ---------------------------------------------------
  free energy    TOTEN  =      -309.62431444 eV

  energy without entropy =     -309.59526426  energy(sigma->0) =     -309.60978935


--------------------------------------------------------------------------------------------------------




--------------------------------------- Iteration      1(   8)  ---------------------------------------


    POTLOK:  cpu time    0.1201: real time    0.1202
    SETDIJ:  cpu time    0.0103: real time    0.0104
     EDDAV:  cpu time    5.2683: real time    5.2775
       DOS:  cpu time    0.0015: real time    0.0015
    CHARGE:  cpu time    0.1948: real time    0.1949
    MIXING:  cpu time    0.0031: real time    0.0031
    --------------------------------------------
      LOOP:  cpu time    5.5981: real time    5.6076

 eigenvalue-minimisations  :  2008
 total energy-change (2. order) :-0.1021103E+04  (-0.3680873E+03)
 number of electron     240.0000028 magnetization 
 augmentation part       57.5219421 magnetization 

 Broyden mixing:
  rms(total) = 0.31988E+02    rms(broyden)= 0.31988E+02
  rms(prec ) = 0.38842E+02
  weight for this iteration     100.00

 eigenvalues of (default mixing * dielectric matrix)
  average eigenvalue GAMMA=   0.1269
  0.1853  0.1853  0.0101

 Free energy of the ion-electron system (eV)
  ---------------------------------------------------
  alpha Z        PSCENC =       480.28159767
  Ewald energy   TEWEN  =    274036.36663083
  -Hartree energ DENC   =   -291923.43900879
  -exchange      EXHF   =         0.00000000
  -V(xc)+E(xc)   XCENC  =        70.44389477
  PAW double counting   =     17675.03534597   -16991.42760859
  entropy T*S    EENTRO =        -0.01886059
  eigenvalues    EBANDS =     -2157.63070075
  atomic energy  EATOM  =     17479.66102378
  Solvation  Ediel_sol  =         0.00000000
  ---------------------------------------------------
  free energy    TOTEN  =     -1330.72768571 eV

  energy without entropy =    -1330.70882511  energy(sigma->0) =    -1330.71825541


--------------------------------------------------------------------------------------------------------




--------------------------------------- Iteration      1(   9)  ---------------------------------------


    POTLOK:  cpu time    0.1185: real time    0.1186
    SETDIJ:  cpu time    0.0105: real time    0.0105
     EDDAV:  cpu time    4.2769: real time    4.2821
       DOS:  cpu time    0.0016: real time    0.0016
    CHARGE:  cpu time    0.2000: real time    0.2004
    MIXING:  cpu time    0.0034: real time    0.0034
    --------------------------------------------
      LOOP:  cpu time    4.6109: real time    4.6167

 eigenvalue-minimisations  :  1552
 total energy-change (2. order) :-0.9449812E+02  (-0.8444608E+02)
 number of electron     240.0000023 magnetization 
 augmentation part       55.5812209 magnetization 

 Broyden mixing:
  rms(total) = 0.32719E+02    rms(broyden)= 0.32719E+02
  rms(prec ) = 0.40536E+02
  weight for this iteration     100.00

 eigenvalues of (default mixing * dielectric matrix)
  average eigenvalue GAMMA=   0.1514
  0.1752  0.2134  0.1800  0.0371

 Free energy of the ion-electron system (eV)
  ---------------------------------------------------
  alpha Z        PSCENC =       480.28159767
  Ewald energy   TEWEN  =    274036.36663083
  -Hartree energ DENC   =   -292042.27051107
  -exchange      EXHF   =         0.00000000
  -V(xc)+E(xc)   XCENC  =        70.86943278
  PAW double counting   =     17591.87090873   -16907.30890116
  entropy T*S    EENTRO =        -0.01471280
  eigenvalues    EBANDS =     -2134.68127838
  atomic energy  EATOM  =     17479.66102378
  Solvation  Ediel_sol  =         0.00000000
  ---------------------------------------------------
  free energy    TOTEN  =     -1425.22580962 eV

  energy without entropy =    -1425.21109682  energy(sigma->0) =    -1425.21845322


--------------------------------------------------------------------------------------------------------




--------------------------------------- Iteration      1(  10)  ---------------------------------------


    POTLOK:  cpu time    0.1247: real time    0.1248
    SETDIJ:  cpu time    0.0104: real time    0.0105
     EDDAV:  cpu time    4.0871: real time    4.0954
       DOS:  cpu time    0.0014: real time    0.0014
    CHARGE:  cpu time    0.2107: real time    0.2137
    MIXING:  cpu time    0.0033: real time    0.0033
    --------------------------------------------
      LOOP:  cpu time    4.4377: real time    4.4490

 eigenvalue-minimisations  :  1472
 total energy-change (2. order) : 0.7784057E+03  (-0.1111521E+03)
 number of electron     239.9999985 magnetization 
 augmentation part       63.4095209 magnetization 

 Broyden mixing:
  rms(total) = 0.20241E+02    rms(broyden)= 0.20241E+02
  rms(prec ) = 0.25377E+02
  weight for this iteration     100.00

 eigenvalues of (default mixing * dielectric matrix)
  average eigenvalue GAMMA=   0.2270
  0.5047  0.2516  0.2516  0.0829  0.0442

 Free energy of the ion-electron system (eV)
  ---------------------------------------------------
  alpha Z        PSCENC =       480.28159767
  Ewald energy   TEWEN  =    274036.36663083
  -Hartree energ DENC   =   -290450.66479284
  -exchange      EXHF   =         0.00000000
  -V(xc)+E(xc)   XCENC  =        69.14068227
  PAW double counting   =     17021.20801564   -16337.33479230
  entropy T*S    EENTRO =        -0.00947601
  eigenvalues    EBANDS =     -2945.46895202
  atomic energy  EATOM  =     17479.66102378
  Solvation  Ediel_sol  =         0.00000000
  ---------------------------------------------------
  free energy    TOTEN  =      -646.82006298 eV

  energy without entropy =     -646.81058697  energy(sigma->0) =     -646.81532498


--------------------------------------------------------------------------------------------------------




--------------------------------------- Iteration      1(  11)  ---------------------------------------


    POTLOK:  cpu time    0.1254: real time    0.1255
    SETDIJ:  cpu time    0.0105: real time    0.0105
     EDDAV:  cpu time    3.9342: real time    3.9420
       DOS:  cpu time    0.0009: real time    0.0009
    CHARGE:  cpu time    0.2209: real time    0.2210
    MIXING:  cpu time    0.0037: real time    0.0037
    --------------------------------------------
      LOOP:  cpu time    4.2957: real time    4.3037

 eigenvalue-minimisations  :  1408
 total energy-change (2. order) :-0.1028880E+03  (-0.2646651E+02)
 number of electron     240.0000011 magnetization 
 augmentation part       61.1521785 magnetization 

 Broyden mixing:
  rms(total) = 0.27215E+02    rms(broyden)= 0.27215E+02
  rms(prec ) = 0.32421E+02
  weight for this iteration     100.00

 eigenvalues of (default mixing * dielectric matrix)
  average eigenvalue GAMMA=   0.1959
  0.5070  0.1989  0.1989  0.1466  0.0788  0.0452

 Free energy of the ion-electron system (eV)
  ---------------------------------------------------
  alpha Z        PSCENC =       480.28159767
  Ewald energy   TEWEN  =    274036.36663083
  -Hartree energ DENC   =   -290593.86795627
  -exchange      EXHF   =         0.00000000
  -V(xc)+E(xc)   XCENC  =        68.90699063
  PAW double counting   =     17252.15879849   -16566.66443315
  entropy T*S    EENTRO =        -0.03860601
  eigenvalues    EBANDS =     -2906.51206830
  atomic energy  EATOM  =     17479.66102378
  Solvation  Ediel_sol  =         0.00000000
  ---------------------------------------------------
  free energy    TOTEN  =      -749.70802235 eV

  energy without entropy =     -749.66941634  energy(sigma->0) =     -749.68871935


--------------------------------------------------------------------------------------------------------




--------------------------------------- Iteration      1(  12)  ---------------------------------------


    POTLOK:  cpu time    0.1323: real time    0.1325
    SETDIJ:  cpu time    0.0103: real time    0.0103
     EDDAV:  cpu time    4.1204: real time    4.1283
       DOS:  cpu time    0.0013: real time    0.0013
    CHARGE:  cpu time    0.2137: real time    0.2166
    MIXING:  cpu time    0.0036: real time    0.0036
    --------------------------------------------
      LOOP:  cpu time    4.4815: real time    4.4926

 eigenvalue-minimisations  :  1496
 total energy-change (2. order) : 0.2277073E+03  (-0.8074953E+01)
 number of electron     239.9999960 magnetization 
 augmentation part       64.4804720 magnetization 

 Broyden mixing:
  rms(total) = 0.17899E+02    rms(broyden)= 0.17899E+02
  rms(prec ) = 0.22498E+02
  weight for this iteration     100.00

 eigenvalues of (default mixing * dielectric matrix)
  average eigenvalue GAMMA=   0.3040
  0.5500  0.5500  0.3234  0.3234  0.2614  0.0742  0.0458

 Free energy of the ion-electron system (eV)
  ---------------------------------------------------
  alpha Z        PSCENC =       480.28159767
  Ewald energy   TEWEN  =    274036.36663083
  -Hartree energ DENC   =   -290358.29115968
  -exchange      EXHF   =         0.00000000
  -V(xc)+E(xc)   XCENC  =        68.49850945
  PAW double counting   =     17258.50542328   -16574.45619003
  entropy T*S    EENTRO =        -0.00040271
  eigenvalues    EBANDS =     -2912.56613037
  atomic energy  EATOM  =     17479.66102378
  Solvation  Ediel_sol  =         0.00000000
  ---------------------------------------------------
  free energy    TOTEN  =      -522.00069777 eV

  energy without entropy =     -522.00029507  energy(sigma->0) =     -522.00049642


--------------------------------------------------------------------------------------------------------




--------------------------------------- Iteration      1(  13)  ---------------------------------------


    POTLOK:  cpu time    0.1296: real time    0.1298
    SETDIJ:  cpu time    0.0105: real time    0.0105
     EDDAV:  cpu time    4.2737: real time    4.2817
       DOS:  cpu time    0.0027: real time    0.0027
    CHARGE:  cpu time    0.2002: real time    0.2004
    MIXING:  cpu time    0.0038: real time    0.0038
    --------------------------------------------
      LOOP:  cpu time    4.6206: real time    4.6291

 eigenvalue-minimisations  :  1552
 total energy-change (2. order) : 0.3900357E+03  (-0.6777937E+02)
 number of electron     239.9999996 magnetization 
 augmentation part       72.2788017 magnetization 

 Broyden mixing:
  rms(total) = 0.82114E+01    rms(broyden)= 0.82114E+01
  rms(prec ) = 0.98575E+01
  weight for this iteration     100.00

 eigenvalues of (default mixing * dielectric matrix)
  average eigenvalue GAMMA=   0.3819
  0.8462  0.5678  0.5678  0.3447  0.3447  0.2637  0.0743  0.0457

 Free energy of the ion-electron system (eV)
  ---------------------------------------------------
  alpha Z        PSCENC =       480.28159767
  Ewald energy   TEWEN  =    274036.36663083
  -Hartree energ DENC   =   -290856.98260581
  -exchange      EXHF   =         0.00000000
  -V(xc)+E(xc)   XCENC  =        67.67674900
  PAW double counting   =     17370.07776503   -16690.22412375
  entropy T*S    EENTRO =        -0.00766071
  eigenvalues    EBANDS =     -2018.81435743
  atomic energy  EATOM  =     17479.66102378
  Solvation  Ediel_sol  =         0.00000000
  ---------------------------------------------------
  free energy    TOTEN  =      -131.96498140 eV

  energy without entropy =     -131.95732069  energy(sigma->0) =     -131.96115104


--------------------------------------------------------------------------------------------------------




--------------------------------------- Iteration      1(  14)  ---------------------------------------


    POTLOK:  cpu time    0.1271: real time    0.1272
    SETDIJ:  cpu time    0.0104: real time    0.0104
     EDDAV:  cpu time    3.8586: real time    3.8630
       DOS:  cpu time    0.0017: real time    0.0017
    CHARGE:  cpu time    0.2040: real time    0.2042
    MIXING:  cpu time    0.0039: real time    0.0039
    --------------------------------------------
      LOOP:  cpu time    4.2057: real time    4.2104

 eigenvalue-minimisations  :  1376
 total energy-change (2. order) :-0.1643083E+02  (-0.3166698E+02)
 number of electron     240.0000019 magnetization 
 augmentation part       73.7935029 magnetization 

 Broyden mixing:
  rms(total) = 0.53908E+01    rms(broyden)= 0.53908E+01
  rms(prec ) = 0.61089E+01
  weight for this iteration     100.00

 eigenvalues of (default mixing * dielectric matrix)
  average eigenvalue GAMMA=   0.4850
  1.7326  0.5509  0.5509  0.4646  0.2641  0.3410  0.3410  0.0743  0.0457

 Free energy of the ion-electron system (eV)
  ---------------------------------------------------
  alpha Z        PSCENC =       480.28159767
  Ewald energy   TEWEN  =    274036.36663083
  -Hartree energ DENC   =   -290938.80564915
  -exchange      EXHF   =         0.00000000
  -V(xc)+E(xc)   XCENC  =        67.32619900
  PAW double counting   =     17938.01784642   -17259.42984841
  entropy T*S    EENTRO =        -0.02086223
  eigenvalues    EBANDS =     -1951.79275160
  atomic energy  EATOM  =     17479.66102378
  Solvation  Ediel_sol  =         0.00000000
  ---------------------------------------------------
  free energy    TOTEN  =      -148.39581369 eV

  energy without entropy =     -148.37495147  energy(sigma->0) =     -148.38538258


--------------------------------------------------------------------------------------------------------




--------------------------------------- Iteration      1(  15)  ---------------------------------------


    POTLOK:  cpu time    0.1241: real time    0.1242
    SETDIJ:  cpu time    0.0104: real time    0.0104
     EDDAV:  cpu time    3.9321: real time    3.9394
       DOS:  cpu time    0.0018: real time    0.0018
    CHARGE:  cpu time    0.2006: real time    0.2035
    MIXING:  cpu time    0.0070: real time    0.0070
    --------------------------------------------
      LOOP:  cpu time    4.2758: real time    4.2862

 eigenvalue-minimisations  :  1392
 total energy-change (2. order) : 0.7184262E+01  (-0.8145847E+01)
 number of electron     239.9999997 magnetization 
 augmentation part       74.4639401 magnetization 

 Broyden mixing:
  rms(total) = 0.43330E+01    rms(broyden)= 0.43329E+01
  rms(prec ) = 0.45034E+01
  weight for this iteration     100.00

 eigenvalues of (default mixing * dielectric matrix)
  average eigenvalue GAMMA=   0.5278
  2.4574  0.5079  0.5079  0.2642  0.3441  0.3441  0.4622  0.0743  0.0457  0.2706

 Free energy of the ion-electron system (eV)
  ---------------------------------------------------
  alpha Z        PSCENC =       480.28159767
  Ewald energy   TEWEN  =    274036.36663083
  -Hartree energ DENC   =   -290861.01468736
  -exchange      EXHF   =         0.00000000
  -V(xc)+E(xc)   XCENC  =        66.73494520
  PAW double counting   =     18609.44707759   -17934.64739669
  entropy T*S    EENTRO =        -0.08621719
  eigenvalues    EBANDS =     -2017.95452558
  atomic energy  EATOM  =     17479.66102378
  Solvation  Ediel_sol  =         0.00000000
  ---------------------------------------------------
  free energy    TOTEN  =      -141.21155177 eV

  energy without entropy =     -141.12533458  energy(sigma->0) =     -141.16844317


--------------------------------------------------------------------------------------------------------




--------------------------------------- Iteration      1(  16)  ---------------------------------------


    POTLOK:  cpu time    0.1339: real time    0.1340
    SETDIJ:  cpu time    0.0104: real time    0.0104
     EDDAV:  cpu time    4.0070: real time    4.0176
       DOS:  cpu time    0.0028: real time    0.0028
    CHARGE:  cpu time    0.2063: real time    0.2092
    MIXING:  cpu time    0.0049: real time    0.0049
    --------------------------------------------
      LOOP:  cpu time    4.3652: real time    4.3789

 eigenvalue-minimisations  :  1432
 total energy-change (2. order) :-0.8196970E+01  (-0.2559445E+01)
 number of electron     240.0000006 magnetization 
 augmentation part       74.8228781 magnetization 

 Broyden mixing:
  rms(total) = 0.45363E+01    rms(broyden)= 0.45362E+01
  rms(prec ) = 0.47132E+01
  weight for this iteration     100.00

 eigenvalues of (default mixing * dielectric matrix)
  average eigenvalue GAMMA=   0.4855
  2.4755  0.4997  0.4997  0.2642  0.3448  0.3448  0.4450  0.2460  0.0457  0.0743
  0.1002

 Free energy of the ion-electron system (eV)
  ---------------------------------------------------
  alpha Z        PSCENC =       480.28159767
  Ewald energy   TEWEN  =    274036.36663083
  -Hartree energ DENC   =   -290560.76829664
  -exchange      EXHF   =         0.00000000
  -V(xc)+E(xc)   XCENC  =        65.47041309
  PAW double counting   =     18943.99839019   -18275.44198570
  entropy T*S    EENTRO =        -0.04260451
  eigenvalues    EBANDS =     -2318.93369076
  atomic energy  EATOM  =     17479.66102378
  Solvation  Ediel_sol  =         0.00000000
  ---------------------------------------------------
  free energy    TOTEN  =      -149.40852205 eV

  energy without entropy =     -149.36591754  energy(sigma->0) =     -149.38721979


--------------------------------------------------------------------------------------------------------




--------------------------------------- Iteration      1(  17)  ---------------------------------------


    POTLOK:  cpu time    0.1304: real time    0.1332
    SETDIJ:  cpu time    0.0104: real time    0.0104
     EDDAV:  cpu time    3.9324: real time    3.9395
       DOS:  cpu time    0.0019: real time    0.0020
    CHARGE:  cpu time    0.2132: real time    0.2134
    MIXING:  cpu time    0.0047: real time    0.0047
    --------------------------------------------
      LOOP:  cpu time    4.2931: real time    4.3032

 eigenvalue-minimisations  :  1408
 total energy-change (2. order) : 0.3564982E+00  (-0.5488078E+00)
 number of electron     240.0000012 magnetization 
 augmentation part       74.8592680 magnetization 

 Broyden mixing:
  rms(total) = 0.42690E+01    rms(broyden)= 0.42690E+01
  rms(prec ) = 0.44343E+01
  weight for this iteration     100.00

 eigenvalues of (default mixing * dielectric matrix)
  average eigenvalue GAMMA=   0.4746
  2.4504  0.5190  0.5190  0.3435  0.3435  0.4575  0.2642  0.2250  0.0457  0.0743
  0.2663  0.1863

 Free energy of the ion-electron system (eV)
  ---------------------------------------------------
  alpha Z        PSCENC =       480.28159767
  Ewald energy   TEWEN  =    274036.36663083
  -Hartree energ DENC   =   -290573.11036539
  -exchange      EXHF   =         0.00000000
  -V(xc)+E(xc)   XCENC  =        65.45445215
  PAW double counting   =     18976.48034569   -18308.41151590
  entropy T*S    EENTRO =        -0.03097386
  eigenvalues    EBANDS =     -2305.74321884
  atomic energy  EATOM  =     17479.66102378
  Solvation  Ediel_sol  =         0.00000000
  ---------------------------------------------------
  free energy    TOTEN  =      -149.05202388 eV

  energy without entropy =     -149.02105002  energy(sigma->0) =     -149.03653695


--------------------------------------------------------------------------------------------------------




--------------------------------------- Iteration      1(  18)  ---------------------------------------


    POTLOK:  cpu time    0.1278: real time    0.1279
    SETDIJ:  cpu time    0.0104: real time    0.0104
     EDDAV:  cpu time    4.0468: real time    4.0540
       DOS:  cpu time    0.0018: real time    0.0018
    CHARGE:  cpu time    0.2022: real time    0.2024
    MIXING:  cpu time    0.0049: real time    0.0050
    --------------------------------------------
      LOOP:  cpu time    4.3938: real time    4.4015

 eigenvalue-minimisations  :  1448
 total energy-change (2. order) : 0.1202057E+00  (-0.5147181E-01)
 number of electron     240.0000004 magnetization 
 augmentation part       74.8720685 magnetization 

 Broyden mixing:
  rms(total) = 0.43130E+01    rms(broyden)= 0.43130E+01
  rms(prec ) = 0.45221E+01
  weight for this iteration     100.00

 eigenvalues of (default mixing * dielectric matrix)
  average eigenvalue GAMMA=   0.5254
  2.4418  0.5837  0.5837  0.5605  0.5605  0.2642  0.3420  0.3420  0.4605  0.4077
  0.0457  0.0743  0.1639

 Free energy of the ion-electron system (eV)
  ---------------------------------------------------
  alpha Z        PSCENC =       480.28159767
  Ewald energy   TEWEN  =    274036.36663083
  -Hartree energ DENC   =   -290603.25179969
  -exchange      EXHF   =         0.00000000
  -V(xc)+E(xc)   XCENC  =        65.57873470
  PAW double counting   =     18972.12006207   -18303.10985080
  entropy T*S    EENTRO =        -0.06346373
  eigenvalues    EBANDS =     -2276.51475298
  atomic energy  EATOM  =     17479.66102378
  Solvation  Ediel_sol  =         0.00000000
  ---------------------------------------------------
  free energy    TOTEN  =      -148.93181816 eV

  energy without entropy =     -148.86835443  energy(sigma->0) =     -148.90008629


--------------------------------------------------------------------------------------------------------




--------------------------------------- Iteration      1(  19)  ---------------------------------------


    POTLOK:  cpu time    0.1278: real time    0.1279
    SETDIJ:  cpu time    0.0103: real time    0.0103
     EDDAV:  cpu time    3.6033: real time    3.6104
       DOS:  cpu time    0.0014: real time    0.0014
    CHARGE:  cpu time    0.2069: real time    0.2072
    MIXING:  cpu time    0.0050: real time    0.0050
    --------------------------------------------
      LOOP:  cpu time    3.9548: real time    3.9623

 eigenvalue-minimisations  :  1272
 total energy-change (2. order) : 0.4863203E+01  (-0.4217815E+00)
 number of electron     240.0000001 magnetization 
 augmentation part       75.3825888 magnetization 

 Broyden mixing:
  rms(total) = 0.40972E+01    rms(broyden)= 0.40972E+01
  rms(prec ) = 0.43307E+01
  weight for this iteration     100.00

 eigenvalues of (default mixing * dielectric matrix)
  average eigenvalue GAMMA=   0.5554
  2.3907  0.8592  0.8592  0.5737  0.5737  0.2642  0.3424  0.3424  0.4608  0.4155
  0.4155  0.0457  0.0743  0.1574

 Free energy of the ion-electron system (eV)
  ---------------------------------------------------
  alpha Z        PSCENC =       480.28159767
  Ewald energy   TEWEN  =    274036.36663083
  -Hartree energ DENC   =   -290675.99312378
  -exchange      EXHF   =         0.00000000
  -V(xc)+E(xc)   XCENC  =        65.82854850
  PAW double counting   =     19046.98684656   -18377.72164568
  entropy T*S    EENTRO =        -0.09932467
  eigenvalues    EBANDS =     -2199.37916845
  atomic energy  EATOM  =     17479.66102378
  Solvation  Ediel_sol  =         0.00000000
  ---------------------------------------------------
  free energy    TOTEN  =      -144.06861524 eV

  energy without entropy =     -143.96929057  energy(sigma->0) =     -144.01895291


--------------------------------------------------------------------------------------------------------




--------------------------------------- Iteration      1(  20)  ---------------------------------------


    POTLOK:  cpu time    0.1237: real time    0.1238
    SETDIJ:  cpu time    0.0103: real time    0.0103
     EDDAV:  cpu time    3.6399: real time    3.6498
       DOS:  cpu time    0.0018: real time    0.0018
    CHARGE:  cpu time    0.2037: real time    0.2039
    MIXING:  cpu time    0.0051: real time    0.0051
    --------------------------------------------
      LOOP:  cpu time    3.9845: real time    3.9947

 eigenvalue-minimisations  :  1280
 total energy-change (2. order) :-0.1269842E+01  (-0.3701619E+00)
 number of electron     239.9999999 magnetization 
 augmentation part       74.8896742 magnetization 

 Broyden mixing:
  rms(total) = 0.40432E+01    rms(broyden)= 0.40432E+01
  rms(prec ) = 0.42812E+01
  weight for this iteration     100.00

 eigenvalues of (default mixing * dielectric matrix)
  average eigenvalue GAMMA=   0.6185
  2.3014  1.2224  1.2224  0.6140  0.6140  0.6275  0.6275  0.2642  0.3425  0.3425
  0.4945  0.0457  0.0743  0.3263  0.1584

 Free energy of the ion-electron system (eV)
  ---------------------------------------------------
  alpha Z        PSCENC =       480.28159767
  Ewald energy   TEWEN  =    274036.36663083
  -Hartree energ DENC   =   -290752.46930477
  -exchange      EXHF   =         0.00000000
  -V(xc)+E(xc)   XCENC  =        66.04171956
  PAW double counting   =     19145.02199724   -18475.60615637
  entropy T*S    EENTRO =        -0.07976540
  eigenvalues    EBANDS =     -2124.55620005
  atomic energy  EATOM  =     17479.66102378
  Solvation  Ediel_sol  =         0.00000000
  ---------------------------------------------------
  free energy    TOTEN  =      -145.33845752 eV

  energy without entropy =     -145.25869212  energy(sigma->0) =     -145.29857482


--------------------------------------------------------------------------------------------------------




--------------------------------------- Iteration      1(  21)  ---------------------------------------


    POTLOK:  cpu time    0.1206: real time    0.1207
    SETDIJ:  cpu time    0.0107: real time    0.0107
     EDDAV:  cpu time    3.6502: real time    3.6573
       DOS:  cpu time    0.0016: real time    0.0016
    CHARGE:  cpu time    0.2024: real time    0.2027
    MIXING:  cpu time    0.0056: real time    0.0056
    --------------------------------------------
      LOOP:  cpu time    3.9911: real time    3.9986

 eigenvalue-minimisations  :  1296
 total energy-change (2. order) : 0.6727284E+01  (-0.1600393E+01)
 number of electron     240.0000004 magnetization 
 augmentation part       75.2257378 magnetization 

 Broyden mixing:
  rms(total) = 0.34611E+01    rms(broyden)= 0.34610E+01
  rms(prec ) = 0.35699E+01
  weight for this iteration     100.00

 eigenvalues of (default mixing * dielectric matrix)
  average eigenvalue GAMMA=   0.6217
  2.6272  1.0436  1.0436  0.7552  0.7552  0.6333  0.6333  0.2642  0.3425  0.3425
  0.5173  0.0457  0.0743  0.3972  0.3143  0.1584

 Free energy of the ion-electron system (eV)
  ---------------------------------------------------
  alpha Z        PSCENC =       480.28159767
  Ewald energy   TEWEN  =    274036.36663083
  -Hartree energ DENC   =   -291005.19678678
  -exchange      EXHF   =         0.00000000
  -V(xc)+E(xc)   XCENC  =        66.81693677
  PAW double counting   =     19608.88418065   -18943.31881474
  entropy T*S    EENTRO =        -0.09813339
  eigenvalues    EBANDS =     -1862.00780786
  atomic energy  EATOM  =     17479.66102378
  Solvation  Ediel_sol  =         0.00000000
  ---------------------------------------------------
  free energy    TOTEN  =      -138.61117308 eV

  energy without entropy =     -138.51303968  energy(sigma->0) =     -138.56210638


--------------------------------------------------------------------------------------------------------




--------------------------------------- Iteration      1(  22)  ---------------------------------------


    POTLOK:  cpu time    0.1189: real time    0.1190
    SETDIJ:  cpu time    0.0104: real time    0.0104
     EDDAV:  cpu time    3.8394: real time    3.8471
       DOS:  cpu time    0.0019: real time    0.0019
    CHARGE:  cpu time    0.1998: real time    0.2001
    MIXING:  cpu time    0.0057: real time    0.0057
    --------------------------------------------
      LOOP:  cpu time    4.1761: real time    4.1842

 eigenvalue-minimisations  :  1352
 total energy-change (2. order) :-0.1366722E+01  (-0.6202670E+00)
 number of electron     240.0000000 magnetization 
 augmentation part       75.2736289 magnetization 

 Broyden mixing:
  rms(total) = 0.37086E+01    rms(broyden)= 0.37086E+01
  rms(prec ) = 0.39861E+01
  weight for this iteration     100.00

 eigenvalues of (default mixing * dielectric matrix)
  average eigenvalue GAMMA=   0.6386
  3.1015  0.9281  0.9281  1.0142  0.6226  0.6226  0.2642  0.3425  0.3425  0.5869
  0.5869  0.4539  0.4539  0.0457  0.0743  0.3291  0.1584

 Free energy of the ion-electron system (eV)
  ---------------------------------------------------
  alpha Z        PSCENC =       480.28159767
  Ewald energy   TEWEN  =    274036.36663083
  -Hartree energ DENC   =   -291022.06448862
  -exchange      EXHF   =         0.00000000
  -V(xc)+E(xc)   XCENC  =        66.72190792
  PAW double counting   =     19883.82088183   -19221.68649205
  entropy T*S    EENTRO =        -0.01798103
  eigenvalues    EBANDS =     -1843.06097550
  atomic energy  EATOM  =     17479.66102378
  Solvation  Ediel_sol  =         0.00000000
  ---------------------------------------------------
  free energy    TOTEN  =      -139.97789518 eV

  energy without entropy =     -139.95991414  energy(sigma->0) =     -139.96890466


--------------------------------------------------------------------------------------------------------




--------------------------------------- Iteration      1(  23)  ---------------------------------------


    POTLOK:  cpu time    0.1204: real time    0.1205
    SETDIJ:  cpu time    0.0103: real time    0.0104
     EDDAV:  cpu time    3.5611: real time    3.5707
       DOS:  cpu time    0.0019: real time    0.0019
    CHARGE:  cpu time    0.2024: real time    0.2026
    MIXING:  cpu time    0.0059: real time    0.0059
    --------------------------------------------
      LOOP:  cpu time    3.9020: real time    3.9120

 eigenvalue-minimisations  :  1240
 total energy-change (2. order) : 0.4475067E+00  (-0.9795961E-01)
 number of electron     240.0000000 magnetization 
 augmentation part       75.4191476 magnetization 

 Broyden mixing:
  rms(total) = 0.36128E+01    rms(broyden)= 0.36128E+01
  rms(prec ) = 0.38724E+01
  weight for this iteration     100.00

 eigenvalues of (default mixing * dielectric matrix)
  average eigenvalue GAMMA=   0.6499
  3.3192  0.9684  0.9684  1.1357  0.2642  0.6223  0.6223  0.3425  0.3425  0.6084
  0.6084  0.5022  0.5022  0.0457  0.0743  0.3369  0.2767  0.1584

 Free energy of the ion-electron system (eV)
  ---------------------------------------------------
  alpha Z        PSCENC =       480.28159767
  Ewald energy   TEWEN  =    274036.36663083
  -Hartree energ DENC   =   -290955.41302390
  -exchange      EXHF   =         0.00000000
  -V(xc)+E(xc)   XCENC  =        66.45933695
  PAW double counting   =     20092.91882747   -19433.20779837
  entropy T*S    EENTRO =        -0.02898434
  eigenvalues    EBANDS =     -1906.56799859
  atomic energy  EATOM  =     17479.66102378
  Solvation  Ediel_sol  =         0.00000000
  ---------------------------------------------------
  free energy    TOTEN  =      -139.53038851 eV

  energy without entropy =     -139.50140417  energy(sigma->0) =     -139.51589634


--------------------------------------------------------------------------------------------------------




--------------------------------------- Iteration      1(  24)  ---------------------------------------


    POTLOK:  cpu time    0.1188: real time    0.1189
    SETDIJ:  cpu time    0.0104: real time    0.0104
     EDDAV:  cpu time    3.7671: real time    3.7740
       DOS:  cpu time    0.0018: real time    0.0018
    CHARGE:  cpu time    0.1979: real time    0.1981
    MIXING:  cpu time    0.0062: real time    0.0062
    --------------------------------------------
      LOOP:  cpu time    4.1021: real time    4.1093

 eigenvalue-minimisations  :  1328
 total energy-change (2. order) : 0.1629708E+01  (-0.1017537E+00)
 number of electron     240.0000000 magnetization 
 augmentation part       75.5365608 magnetization 

 Broyden mixing:
  rms(total) = 0.32473E+01    rms(broyden)= 0.32473E+01
  rms(prec ) = 0.33681E+01
  weight for this iteration     100.00

 eigenvalues of (default mixing * dielectric matrix)
  average eigenvalue GAMMA=   0.6862
  3.6511  1.0654  1.0654  1.2954  0.2642  0.6232  0.6232  0.7546  0.6287  0.6287
  0.3425  0.3425  0.5445  0.0457  0.0743  0.3498  0.3245  0.1584  0.2550

 Free energy of the ion-electron system (eV)
  ---------------------------------------------------
  alpha Z        PSCENC =       480.28159767
  Ewald energy   TEWEN  =    274036.36663083
  -Hartree energ DENC   =   -290897.84612439
  -exchange      EXHF   =         0.00000000
  -V(xc)+E(xc)   XCENC  =        66.22329790
  PAW double counting   =     20189.78394642   -19531.59110105
  entropy T*S    EENTRO =        -0.10621361
  eigenvalues    EBANDS =     -1960.67373847
  atomic energy  EATOM  =     17479.66102378
  Solvation  Ediel_sol  =         0.00000000
  ---------------------------------------------------
  free energy    TOTEN  =      -137.90068093 eV

  energy without entropy =     -137.79446732  energy(sigma->0) =     -137.84757413


--------------------------------------------------------------------------------------------------------




--------------------------------------- Iteration      1(  25)  ---------------------------------------


    POTLOK:  cpu time    0.1226: real time    0.1227
    SETDIJ:  cpu time    0.0104: real time    0.0104
     EDDAV:  cpu time    3.8358: real time    3.8429
       DOS:  cpu time    0.0018: real time    0.0018
    CHARGE:  cpu time    0.2064: real time    0.2067
    MIXING:  cpu time    0.0071: real time    0.0071
    --------------------------------------------
      LOOP:  cpu time    4.1841: real time    4.1916

 eigenvalue-minimisations  :  1280
 total energy-change (2. order) : 0.1174657E+01  (-0.4208796E+00)
 number of electron     239.9999993 magnetization 
 augmentation part       75.6050158 magnetization 

 Broyden mixing:
  rms(total) = 0.28116E+01    rms(broyden)= 0.28116E+01
  rms(prec ) = 0.28352E+01
  weight for this iteration     100.00

 eigenvalues of (default mixing * dielectric matrix)
  average eigenvalue GAMMA=   0.6524
  3.6555  1.0661  1.0661  1.2934  0.2642  0.6231  0.6231  0.7558  0.6286  0.6286
  0.3425  0.3425  0.5447  0.0457  0.0743  0.3482  0.3251  0.1584  0.2549  0.0071

 Free energy of the ion-electron system (eV)
  ---------------------------------------------------
  alpha Z        PSCENC =       480.28159767
  Ewald energy   TEWEN  =    274036.36663083
  -Hartree energ DENC   =   -290853.00935679
  -exchange      EXHF   =         0.00000000
  -V(xc)+E(xc)   XCENC  =        65.89583220
  PAW double counting   =     20313.72134527   -19658.71597232
  entropy T*S    EENTRO =        -0.08345867
  eigenvalues    EBANDS =     -2000.84366574
  atomic energy  EATOM  =     17479.66102378
  Solvation  Ediel_sol  =         0.00000000
  ---------------------------------------------------
  free energy    TOTEN  =      -136.72602378 eV

  energy without entropy =     -136.64256510  energy(sigma->0) =     -136.68429444


--------------------------------------------------------------------------------------------------------




--------------------------------------- Iteration      1(  26)  ---------------------------------------


    POTLOK:  cpu time    0.1225: real time    0.1226
    SETDIJ:  cpu time    0.0104: real time    0.0104
     EDDAV:  cpu time    3.7496: real time    3.7576
       DOS:  cpu time    0.0021: real time    0.0021
    CHARGE:  cpu time    0.2115: real time    0.2118
    MIXING:  cpu time    0.0068: real time    0.0068
    --------------------------------------------
      LOOP:  cpu time    4.1030: real time    4.1114

 eigenvalue-minimisations  :  1312
 total energy-change (2. order) : 0.2795424E-01  (-0.1067161E-01)
 number of electron     239.9999992 magnetization 
 augmentation part       75.6244247 magnetization 

 Broyden mixing:
  rms(total) = 0.28108E+01    rms(broyden)= 0.28108E+01
  rms(prec ) = 0.28344E+01
  weight for this iteration     100.00

 eigenvalues of (default mixing * dielectric matrix)
  average eigenvalue GAMMA=   0.6386
  3.6501  1.0794  1.0794  1.2962  0.2642  0.6233  0.6233  0.7629  0.6297  0.6297
  0.3425  0.3425  0.5451  0.0457  0.0743  0.3527  0.3240  0.1584  0.2523  0.1675
  0.1675

 Free energy of the ion-electron system (eV)
  ---------------------------------------------------
  alpha Z        PSCENC =       480.28159767
  Ewald energy   TEWEN  =    274036.36663083
  -Hartree energ DENC   =   -290847.22453415
  -exchange      EXHF   =         0.00000000
  -V(xc)+E(xc)   XCENC  =        65.87089964
  PAW double counting   =     20318.39557477   -19663.60260580
  entropy T*S    EENTRO =        -0.09478288
  eigenvalues    EBANDS =     -2006.35187340
  atomic energy  EATOM  =     17479.66102378
  Solvation  Ediel_sol  =         0.00000000
  ---------------------------------------------------
  free energy    TOTEN  =      -136.69806954 eV

  energy without entropy =     -136.60328666  energy(sigma->0) =     -136.65067810


--------------------------------------------------------------------------------------------------------




--------------------------------------- Iteration      1(  27)  ---------------------------------------


    POTLOK:  cpu time    0.1276: real time    0.1278
    SETDIJ:  cpu time    0.0103: real time    0.0104
     EDDAV:  cpu time    3.9987: real time    4.0033
       DOS:  cpu time    0.0017: real time    0.0017
    CHARGE:  cpu time    0.2153: real time    0.2183
    MIXING:  cpu time    0.0071: real time    0.0071
    --------------------------------------------
      LOOP:  cpu time    4.3607: real time    4.3685

 eigenvalue-minimisations  :  1432
 total energy-change (2. order) :-0.3818190E-01  (-0.2175287E-02)
 number of electron     239.9999993 magnetization 
 augmentation part       75.6518951 magnetization 

 Broyden mixing:
  rms(total) = 0.27760E+01    rms(broyden)= 0.27760E+01
  rms(prec ) = 0.28009E+01
  weight for this iteration     100.00

 eigenvalues of (default mixing * dielectric matrix)
  average eigenvalue GAMMA=   0.6144
  3.6500  1.3070  1.0816  1.0816  0.7601  0.6234  0.6234  0.6302  0.6302  0.2642
  0.5451  0.3425  0.3425  0.3527  0.3240  0.0457  0.0743  0.2524  0.1584  0.1859
  0.1859  0.0553

 Free energy of the ion-electron system (eV)
  ---------------------------------------------------
  alpha Z        PSCENC =       480.28159767
  Ewald energy   TEWEN  =    274036.36663083
  -Hartree energ DENC   =   -290821.08247650
  -exchange      EXHF   =         0.00000000
  -V(xc)+E(xc)   XCENC  =        65.80653804
  PAW double counting   =     20313.18220917   -19658.81108842
  entropy T*S    EENTRO =        -0.08909839
  eigenvalues    EBANDS =     -2032.05158762
  atomic energy  EATOM  =     17479.66102378
  Solvation  Ediel_sol  =         0.00000000
[...]
     25      -4.9128      2.00000
     26      -4.9126      2.00000
     27      -4.7667      2.00000
     28      -4.7663      2.00000
     29      -4.6457      2.00000
     30      -4.6451      2.00000
     31      -4.6197      2.00000
     32      -4.6193      2.00000
     33      -4.4515      2.00000
     34      -4.4514      2.00000
     35      -4.3269      2.00000
     36      -4.3265      2.00000
     37      -4.3163      2.00000
     38      -4.3161      2.00000
     39      -4.2070      2.00000
     40      -4.2067      2.00000
     41      -4.1303      2.00000
     42      -4.1301      2.00000
     43      -4.0140      2.00000
     44      -4.0139      2.00000
     45      -4.0050      2.00000
     46      -4.0041      2.00000
     47      -3.9386      2.00000
     48      -3.9385      2.00000
     49      -3.7528      2.00000
     50      -3.7524      2.00000
     51      -3.6254      2.00000
     52      -3.6251      2.00000
     53      -3.5340      2.00000
     54      -3.5336      2.00000
     55      -3.4677      2.00000
     56      -3.4674      2.00000
     57      -3.3992      2.00000
     58      -3.3988      2.00000
     59      -3.2400      2.00000
     60      -3.2394      2.00000
     61      -3.1111      2.00000
     62      -3.1110      2.00000
     63      -3.0551      2.00000
     64      -3.0548      2.00000
     65      -3.0008      2.00000
     66      -3.0004      2.00000
     67      -2.9634      2.00000
     68      -2.9632      2.00000
     69      -2.9503      2.00000
     70      -2.9494      2.00000
     71      -2.8705      2.00000
     72      -2.8704      2.00000
     73      -2.7876      2.00000
     74      -2.7874      2.00000
     75      -2.6651      2.00000
     76      -2.6642      2.00000
     77      -2.5855      2.00000
     78      -2.5845      2.00000
     79      -2.4240      2.00000
     80      -2.4238      2.00000
     81      -2.3488      2.00000
     82      -2.3486      2.00000
     83      -2.2240      2.00000
     84      -2.2239      2.00000
     85      -2.1583      2.00000
     86      -2.1575      2.00000
     87      -2.0775      2.00000
     88      -2.0772      2.00000
     89      -1.9872      2.00000
     90      -1.9864      2.00000
     91      -1.8751      2.00000
     92      -1.8749      2.00000
     93      -1.8139      2.00000
     94      -1.8134      2.00000
     95      -1.7253      2.00000
     96      -1.7245      2.00000
     97      -1.6388      2.00000
     98      -1.6386      2.00000
     99      -1.6124      2.00000
    100      -1.6122      2.00000
    101      -1.6060      2.00000
    102      -1.6059      2.00000
    103      -1.4133      2.00000
    104      -1.4127      2.00000
    105      -1.3109      2.00000
    106      -1.3107      2.00000
    107      -1.1766      2.00000
    108      -1.1760      2.00000
    109      -1.0775      2.00000
    110      -1.0769      2.00000
    111      -0.8877      2.00000
    112      -0.8875      2.00000
    113      -0.8552      2.00000
    114      -0.8547      2.00000
    115      -0.3865      2.00000
    116      -0.3861      2.00000
    117      -0.3285      2.00000
    118      -0.3282      2.00000
    119      -0.1318      1.84994
    120      -0.1316      1.84829
    121      -0.1156      1.67325
    122      -0.1154      1.67107
    123      -0.0795      0.96909
    124      -0.0794      0.96523
    125      -0.0057      0.03327
    126      -0.0052      0.03214
    127       0.1456      0.00000
    128       0.1457      0.00000
    129       1.2813      0.00000
    130       1.2816      0.00000
    131       1.6250      0.00000
    132       1.6252      0.00000
    133       1.8418      0.00000
    134       1.8419      0.00000
    135       2.3144      0.00000
    136       2.3144      0.00000
    137       2.7882      0.00000
    138       2.7889      0.00000
    139       3.1513      0.00000
    140       3.1516      0.00000
    141       4.3472      0.00000
    142       4.3479      0.00000
    143       4.4527      0.00000
    144       4.4532      0.00000


--------------------------------------------------------------------------------------------------------


 soft charge-density along one line, spin component            1
         0         1         2         3         4         5         6         7         8         9
 total charge-density along one line
 
 pseudopotential strength for first ion, spin component:            1
 -6.653  -0.000  -0.000   0.009   0.000  -6.749  -0.000  -0.000
 -0.000  -6.490   0.000  -0.000   0.009  -0.000  -6.590   0.000
 -0.000   0.000  -6.482  -0.000  -0.000  -0.000   0.000  -6.583
  0.009  -0.000  -0.000  -6.490  -0.000   0.009  -0.000  -0.000
  0.000   0.009  -0.000  -0.000  -6.653   0.000   0.009  -0.000
 -6.749  -0.000  -0.000   0.009   0.000  -6.829  -0.000  -0.000
 -0.000  -6.590   0.000  -0.000   0.009  -0.000  -6.675   0.000
 -0.000   0.000  -6.583  -0.000  -0.000  -0.000   0.000  -6.668
  0.009  -0.000  -0.000  -6.590  -0.000   0.009  -0.000  -0.000
  0.000   0.009  -0.000  -0.000  -6.749   0.000   0.008  -0.000
  0.000  -0.000  -0.047   0.000  -0.000   0.000  -0.000  -0.046
  0.000  -0.000  -0.069   0.000  -0.000   0.000  -0.000  -0.067
  0.000  -0.003   0.000   0.000  -0.001   0.000  -0.002   0.000
  0.000  -0.000  -0.006   0.000  -0.000   0.000  -0.000  -0.006
 -0.001   0.000  -0.000  -0.003   0.000  -0.001   0.000  -0.000
  0.000  -0.001   0.000   0.000  -0.001   0.000  -0.001   0.000
  0.000  -0.000  -0.006   0.000  -0.000   0.000  -0.000  -0.006
 -0.001   0.000  -0.000  -0.001   0.000  -0.001   0.000  -0.000
 total augmentation occupancy for first ion, spin component:            1
  2.480  -0.001  -0.001   0.133   0.001  -1.507   0.001   0.001   0.010  -0.001  -0.001   0.000   0.000   0.000   0.042  -0.000
 -0.001   4.253   0.003  -0.004   0.133   0.001  -2.287  -0.002   0.002   0.002   0.001  -0.000  -0.238  -0.001  -0.001   0.012
 -0.001   0.003   3.995  -0.006   0.001   0.001  -0.002  -2.423   0.004  -0.000   0.954  -0.180   0.000  -0.263  -0.000   0.000
  0.133  -0.004  -0.006   4.258  -0.001   0.001   0.002   0.004  -2.289   0.000  -0.001   0.001  -0.001   0.001  -0.237   0.000
  0.001   0.133   0.001  -0.001   2.482  -0.001   0.011  -0.000   0.001  -1.508   0.000  -0.000   0.042  -0.000   0.000  -0.000
 -1.507   0.001   0.001   0.001  -0.001   2.138  -0.000  -0.000  -0.105   0.001   0.000   0.000  -0.000  -0.000  -0.052   0.000
  0.001  -2.287  -0.002   0.002   0.011  -0.000   2.203   0.001  -0.001  -0.106  -0.000   0.000   0.230   0.000   0.001  -0.016
  0.001  -0.002  -2.423   0.004  -0.000  -0.000   0.001   2.621  -0.003   0.000  -0.765   0.096  -0.000   0.336   0.000   0.000
  0.010   0.002   0.004  -2.289   0.001  -0.105  -0.001  -0.003   2.205  -0.000   0.000  -0.000   0.001  -0.001   0.229  -0.000
 -0.001   0.002  -0.000   0.000  -1.508   0.001  -0.106   0.000  -0.000   2.138  -0.000  -0.000  -0.053   0.000  -0.000   0.008
 -0.001   0.001   0.954  -0.001   0.000   0.000  -0.000  -0.765   0.000  -0.000   2.352  -0.497   0.000   0.188  -0.000   0.000
  0.000  -0.000  -0.180   0.001  -0.000   0.000   0.000   0.096  -0.000  -0.000  -0.497   0.122   0.000  -0.067  -0.000  -0.000
  0.000  -0.238   0.000  -0.001   0.042  -0.000   0.230  -0.000   0.001  -0.053   0.000   0.000   0.239  -0.000   0.001  -0.015
  0.000  -0.001  -0.263   0.001  -0.000  -0.000   0.000   0.336  -0.001   0.000   0.188  -0.067  -0.000   0.139   0.000   0.000
  0.042  -0.001  -0.000  -0.237   0.000  -0.052   0.001   0.000   0.229  -0.000  -0.000  -0.000   0.001   0.000   0.239  -0.000
 -0.000   0.012   0.000   0.000  -0.000   0.000  -0.016   0.000  -0.000   0.008   0.000  -0.000  -0.015   0.000  -0.000   0.001
  0.000   0.000  -0.005  -0.000  -0.000   0.000  -0.000  -0.017  -0.000  -0.000  -0.021   0.006  -0.000  -0.008   0.000  -0.000
 -0.000   0.000  -0.000   0.012  -0.000   0.008  -0.000  -0.000  -0.016   0.000   0.000   0.000  -0.000  -0.000  -0.015   0.000


------------------------ aborting loop because EDIFF is reached ----------------------------------------





 total charge

# of ion       s       p       d       tot
------------------------------------------
    1        0.619   0.396   8.036   9.052
    2        0.619   0.396   8.036   9.052
    3        0.619   0.396   8.036   9.052
    4        0.619   0.396   8.036   9.052
    5        0.605   0.520   8.038   9.164
    6        0.605   0.520   8.038   9.163
    7        0.605   0.520   8.038   9.164
    8        0.605   0.520   8.038   9.164
    9        0.609   0.514   8.037   9.160
   10        0.609   0.514   8.037   9.161
   11        0.610   0.514   8.037   9.160
   12        0.610   0.514   8.037   9.161
   13        0.605   0.503   8.031   9.139
   14        0.605   0.503   8.031   9.139
   15        0.606   0.503   8.031   9.140
   16        0.605   0.503   8.031   9.140
   17        0.595   0.486   8.018   9.099
   18        0.595   0.486   8.018   9.099
   19        0.595   0.486   8.018   9.099
   20        0.595   0.486   8.018   9.099
   21        0.613   0.372   8.026   9.011
   22        0.613   0.372   8.026   9.011
   23        0.613   0.372   8.026   9.011
   24        0.613   0.372   8.026   9.011
--------------------------------------------------
tot         14.588  11.167 192.746 218.501
 
    CHARGE:  cpu time    0.2184: real time    0.2213
    FORLOC:  cpu time    0.0169: real time    0.0169
    FORNL :  cpu time    0.8265: real time    0.8330
    FORCOR:  cpu time    0.1465: real time    0.1466
    FORHAR:  cpu time    0.0490: real time    0.0491
    MIXING:  cpu time    0.0043: real time    0.0043
    OFIELD:  cpu time    0.0000: real time    0.0000

 VOLUME and BASIS-vectors are now :
 -----------------------------------------------------------------------------
  energy-cutoff  :      420.00
  volume of cell :     1140.03
      direct lattice vectors                 reciprocal lattice vectors
     5.637194000  0.000000000  0.000000000     0.177393221  0.102418028 -0.000000000
    -2.818597000  4.881953000  0.000000000     0.000000000  0.204836056  0.000000000
     0.000000000  0.000000000 41.424746000     0.000000000 -0.000000000  0.024140160

  length of vectors
     5.637194000  5.637193818 41.424746000     0.204836050  0.204836056  0.024140160


 FORCES acting on ions
    electron-ion (+dipol)            ewald-force                    non-local-force                 convergence-correction
 -----------------------------------------------------------------------------------------------
   0.606E-02 -.429E-02 0.435E+04   -.721E-04 -.758E-04 -.435E+04   -.570E-02 0.323E-02 -.144E+01   -.535E-03 0.979E-03 0.161E-01
   0.673E-02 -.130E-02 0.435E+04   -.716E-05 -.600E-04 -.435E+04   -.558E-02 0.311E-02 -.144E+01   -.126E-02 -.207E-02 0.178E-01
   0.547E-02 -.574E-02 0.435E+04   0.147E-03 -.233E-04 -.435E+04   -.566E-02 0.339E-02 -.144E+01   0.470E-03 0.251E-02 0.173E-01
   0.398E-02 -.138E-02 0.435E+04   0.848E-04 0.655E-04 -.435E+04   -.498E-02 0.285E-02 -.144E+01   0.134E-02 -.148E-02 0.182E-01
   -.123E-02 -.972E-02 0.261E+04   0.530E-02 0.575E-02 -.261E+04   -.183E-02 0.703E-03 -.924E-01   0.946E-03 0.142E-02 0.177E+00
   0.728E-03 -.199E-02 0.261E+04   0.382E-02 -.143E-04 -.261E+04   -.177E-02 0.990E-03 -.858E-01   0.190E-03 -.772E-03 0.179E+00
   0.111E-01 -.472E-02 0.261E+04   -.538E-02 0.871E-03 -.261E+04   -.140E-02 0.810E-03 -.921E-01   -.933E-03 0.119E-02 0.177E+00
   0.928E-02 0.518E-02 0.261E+04   -.431E-02 -.629E-02 -.261E+04   -.163E-02 0.121E-02 -.902E-01   -.176E-03 -.185E-02 0.178E+00
   -.235E-01 0.144E-01 0.856E+03   0.496E-01 -.295E-01 -.856E+03   -.201E-01 0.114E-01 0.908E-03   -.562E-03 0.640E-03 0.258E+00
   0.541E-01 -.157E+00 0.856E+03   -.281E-01 0.143E+00 -.856E+03   -.225E-01 0.153E-01 0.427E-03   -.325E-03 -.118E-02 0.259E+00
   0.151E+00 0.343E-01 0.856E+03   -.126E+00 -.499E-01 -.856E+03   -.238E-01 0.115E-01 -.522E-02   0.501E-03 0.996E-03 0.257E+00
   0.140E+00 -.734E-01 0.856E+03   -.115E+00 0.591E-01 -.856E+03   -.243E-01 0.136E-01 -.304E-02   0.391E-03 -.440E-03 0.259E+00
   0.682E+00 -.267E+00 -.880E+03   -.652E+00 0.249E+00 0.880E+03   -.324E-01 0.116E-01 0.937E-01   -.175E-02 0.290E-03 0.230E+00
   0.505E+00 -.241E+00 -.880E+03   -.467E+00 0.222E+00 0.879E+03   -.248E-01 0.177E-01 0.109E+00   -.338E-02 0.412E-03 0.225E+00
   0.392E+00 -.303E+00 -.879E+03   -.367E+00 0.285E+00 0.879E+03   -.264E-01 0.147E-01 0.102E+00   0.814E-02 -.124E-02 0.228E+00
   0.316E+00 -.303E+00 -.879E+03   -.282E+00 0.274E+00 0.879E+03   -.239E-01 0.182E-01 0.104E+00   0.306E-02 0.824E-02 0.223E+00
   -.992E+00 0.603E+00 -.261E+04   0.866E+00 -.533E+00 0.261E+04   0.142E+00 -.808E-01 0.446E+00   -.967E-02 0.750E-02 0.892E-01
   -.120E+01 0.534E+00 -.261E+04   0.106E+01 -.454E+00 0.261E+04   0.157E+00 -.768E-01 0.404E+00   0.108E-01 -.174E-02 0.100E+00
   -.114E+01 0.831E+00 -.261E+04   0.102E+01 -.749E+00 0.261E+04   0.146E+00 -.992E-01 0.413E+00   -.905E-02 -.386E-02 0.936E-01
   -.856E+00 0.486E+00 -.261E+04   0.729E+00 -.404E+00 0.261E+04   0.134E+00 -.875E-01 0.405E+00   -.667E-02 -.322E-02 0.101E+00
   0.427E+00 -.230E+00 -.432E+04   -.386E+00 0.209E+00 0.432E+04   -.308E-01 0.256E-01 0.102E+01   0.402E-03 -.123E-02 -.183E-01
   0.405E+00 -.372E+00 -.432E+04   -.367E+00 0.347E+00 0.432E+04   -.273E-01 0.274E-01 0.102E+01   0.164E-02 0.136E-02 -.166E-01
   0.501E+00 -.147E+00 -.432E+04   -.456E+00 0.132E+00 0.432E+04   -.365E-01 0.169E-01 0.101E+01   -.368E-02 -.628E-02 -.746E-02
   0.520E+00 -.320E+00 -.432E+04   -.474E+00 0.299E+00 0.432E+04   -.355E-01 0.212E-01 0.102E+01   -.603E-02 -.291E-02 -.156E-01
 -----------------------------------------------------------------------------------------------
   -.851E-01 0.659E-01 -.341E+01   0.162E-13 -.770E-13 -.182E-11   0.223E+00 -.123E+00 0.108E-01   -.161E-01 -.273E-02 0.304E+01
 
 
 POSITION                                       TOTAL-FORCE (eV/Angst)
 -----------------------------------------------------------------------------------
      1.40930      0.81366     14.95893        -0.005308      0.002337     -0.514868
     -0.00000      3.25464     14.95893        -0.005172      0.002165     -0.514499
      4.22789      0.81366     14.95893        -0.004623      0.002628     -0.514863
      2.81859      3.25464     14.95893        -0.004618      0.002553     -0.515009
      0.00000      0.00000     17.26032        -0.001871      0.000632      0.406958
     -1.40930      2.44098     17.26032        -0.002089      0.000704      0.408425
      2.81860      0.00000     17.26032        -0.001672      0.000651      0.407009
      1.40930      2.44098     17.26032        -0.001883      0.000744      0.407358
      0.00000      1.62732     19.56168         0.000349     -0.000547      0.111428
     -1.40930      4.06829     19.56168        -0.001793      0.002732      0.110861
      2.81860      1.62732     19.56168        -0.003123     -0.000573      0.107901
      1.40930      4.06829     19.56168        -0.003989      0.001364      0.108286
      1.40573      0.81618     21.91454        -0.008885     -0.003490     -0.006119
     -0.00495      3.25693     21.91322         0.004537      0.001632     -0.001982
      4.22334      0.81649     21.91300         0.001528     -0.001572     -0.004917
      2.81320      3.25736     21.91235         0.008420     -0.000056     -0.006848
     -0.04530      0.02610     24.25994         0.001697     -0.000572      0.015698
      4.18235      2.46691     24.26199         0.016281      0.003936     -0.007854
      2.77334      0.02652     24.26187         0.005941     -0.018171     -0.001887
      1.36447      2.46716     24.26216        -0.004681     -0.006379     -0.006237
     -0.00150      1.62777     26.65933         0.004967      0.005731      0.002709
     -1.41093      4.06879     26.65885         0.007706      0.005982      0.007906
      2.81717      1.62811     26.66092        -0.000574     -0.002553     -0.000531
      1.40797      4.06898     26.65956        -0.001145      0.000120      0.001075
 -----------------------------------------------------------------------------------
    total drift:                                0.121283     -0.059819     -0.355921


--------------------------------------------------------------------------------------------------------



  FREE ENERGIE OF THE ION-ELECTRON SYSTEM (eV)
  ---------------------------------------------------
  free  energy   TOTEN  =      -128.77155381 eV

  energy  without entropy=     -128.63960994  energy(sigma->0) =     -128.70558187
 
 d Force = 0.1689517E-03[ 0.238E-04, 0.314E-03]  d Energy = 0.2243804E-03-0.554E-04
 d Force =-0.1248834E+01[-0.125E+01,-0.125E+01]  d Ewald  =-0.1248834E+01 0.243E-06


--------------------------------------------------------------------------------------------------------


    POTLOK:  cpu time    0.1392: real time    0.1399


--------------------------------------------------------------------------------------------------------


 Conjugate gradient step on ions:
 trial-energy change:   -0.000224  1 .order   -0.000169   -0.000314   -0.000024
  (g-gl).g = 0.911E-04      g.g   = 0.265E-03  gl.gl    = 0.552E-03
 g(Force)  = 0.265E-03   g(Stress)= 0.000E+00 ortho     = 0.527E-04
 gamma     =   0.16497
 trial     =   1.14709
 opt step  =   1.18999  (harmonic =   1.24096) maximal distance =0.00195771
 next E    =  -128.771554   (d E  =  -0.00022)


--------------------------------------------------------------------------------------------------------


  
 reached required accuracy - stopping structural energy minimisation
     LOOP+:  cpu time   51.8528: real time   52.2450
    4ORBIT:  cpu time    0.0000: real time    0.0000



 total charge

# of ion       s       p       d       tot
------------------------------------------
    1        0.619   0.396   8.036   9.052
    2        0.619   0.396   8.036   9.052
    3        0.619   0.396   8.036   9.052
    4        0.619   0.396   8.036   9.052
    5        0.605   0.520   8.038   9.164
    6        0.605   0.520   8.038   9.163
    7        0.605   0.520   8.038   9.164
    8        0.605   0.520   8.038   9.164
    9        0.609   0.514   8.037   9.160
   10        0.609   0.514   8.037   9.161
   11        0.610   0.514   8.037   9.160
   12        0.610   0.514   8.037   9.161
   13        0.605   0.503   8.031   9.139
   14        0.605   0.503   8.031   9.139
   15        0.606   0.503   8.031   9.140
   16        0.605   0.503   8.031   9.140
   17        0.595   0.486   8.018   9.099
   18        0.595   0.486   8.018   9.099
   19        0.595   0.486   8.018   9.099
   20        0.595   0.486   8.018   9.099
   21        0.613   0.372   8.026   9.011
   22        0.613   0.372   8.026   9.011
   23        0.613   0.372   8.026   9.011
   24        0.613   0.372   8.026   9.011
--------------------------------------------------
tot         14.588  11.167 192.746 218.501
 

 total amount of memory used by VASP MPI-rank0    56097. kBytes
=======================================================================

   base      :      30000. kBytes
   nonlr-proj:       2389. kBytes
   fftplans  :       4331. kBytes
   grid      :       6179. kBytes
   one-center:         93. kBytes
   wavefun   :      13105. kBytes
 
  
  
 General timing and accounting informations for this job:
 ========================================================
  
                  Total CPU time used (sec):     3926.781
                            User time (sec):     3919.547
                          System time (sec):        7.235
                         Elapsed time (sec):     3949.383
  
                   Maximum memory used (kb):      107256.
                   Average memory used (kb):          N/A
  
                          Minor page faults:       770486
                          Major page faults:       249914
                 Voluntary context switches:         6894
