 running on   16 total cores
 distrk:  each k-point on   16 cores,    1 groups
 distr:  one band on    4 cores,    4 groups
 vasp.6.2.0 18Jan21 (build Feb  1 2022 01:28:57) complex                         
 POSCAR found type information on POSCAR Pt
 POSCAR found :  1 types and      24 ions
 scaLAPACK will be used
 -----------------------------------------------------------------------------
|                                                                             |
|           W    W    AA    RRRRR   N    N  II  N    N   GGGG   !!!           |
|           W    W   A  A   R    R  NN   N  II  NN   N  G    G  !!!           |
|           W    W  A    A  R    R  N N  N  II  N N  N  G       !!!           |
|           W WW W  AAAAAA  RRRRR   N  N N  II  N  N N  G  GGG   !            |
|           WW  WW  A    A  R   R   N   NN  II  N   NN  G    G                |
|           W    W  A    A  R    R  N    N  II  N    N   GGGG   !!!           |
|                                                                             |
|     The real-space projection scheme for the treatment of the non-local     |
|     pseudopotentials has been switched on but on file POTCAR I have not     |
|     found any entries, signalling me that you have never performed a        |
|     real-space optimization of all non-local projectors! BE WARNED that     |
|     a calculation using the real-space projection scheme together with      |
|     non-local projectors which were not real-space optimized (according     |
|     to the plane-wave cutoff used in this calculation) might give more      |
|     or less inaccurate results. I hope you know what you are doing.         |
|                                                                             |
 -----------------------------------------------------------------------------

 -----------------------------------------------------------------------------
|                                                                             |
|               ----> ADVICE to this user running VASP <----                  |
|                                                                             |
|     You enforced a specific xc type in the INCAR file but a different       |
|     type was found in the POTCAR file.                                      |
|     I HOPE YOU KNOW WHAT YOU ARE DOING!                                     |
|                                                                             |
 -----------------------------------------------------------------------------

 LDA part: xc-table for Pade appr. of Perdew
 POSCAR, INCAR and KPOINTS ok, starting setup
 FFT: planning ...
 WAVECAR not read
 WARNING: random wavefunctions but no delay for mixing, default for NELMDL
 entering main loop
       N       E                     dE             d eps       ncg     rms          rms(c)
DAV:   1     0.159218637580E+04    0.15922E+04   -0.92262E+04  1152   0.118E+03
DAV:   2    -0.869461652596E+01   -0.16009E+04   -0.14591E+04  1416   0.262E+02
DAV:   3    -0.131303139402E+03   -0.12261E+03   -0.11192E+03  1376   0.687E+01
DAV:   4    -0.136859043870E+03   -0.55559E+01   -0.52589E+01  1584   0.135E+01
DAV:   5    -0.136992145666E+03   -0.13310E+00   -0.13070E+00  1376   0.214E+00    0.481E+01
DAV:   6    -0.182316393778E+03   -0.45324E+02   -0.68651E+01  1456   0.456E+01    0.800E+01
DAV:   7    -0.309624314441E+03   -0.12731E+03   -0.50518E+01  1440   0.278E+01    0.116E+02
DAV:   8    -0.133072768571E+04   -0.10211E+04   -0.36809E+03  2008   0.152E+02    0.320E+02
DAV:   9    -0.142522580962E+04   -0.94498E+02   -0.84446E+02  1552   0.544E+01    0.327E+02
DAV:  10    -0.646820062979E+03    0.77841E+03   -0.11115E+03  1472   0.770E+01    0.202E+02
DAV:  11    -0.749708022351E+03   -0.10289E+03   -0.26467E+02  1408   0.305E+01    0.272E+02
DAV:  12    -0.522000697775E+03    0.22771E+03   -0.80750E+01  1496   0.237E+01    0.179E+02
DAV:  13    -0.131964981396E+03    0.39004E+03   -0.67779E+02  1552   0.469E+01    0.821E+01
DAV:  14    -0.148395813694E+03   -0.16431E+02   -0.31667E+02  1376   0.285E+01    0.539E+01
DAV:  15    -0.141211551766E+03    0.71843E+01   -0.81458E+01  1392   0.256E+01    0.433E+01
DAV:  16    -0.149408522048E+03   -0.81970E+01   -0.25594E+01  1432   0.140E+01    0.454E+01
DAV:  17    -0.149052023881E+03    0.35650E+00   -0.54881E+00  1408   0.452E+00    0.427E+01
DAV:  18    -0.148931818158E+03    0.12021E+00   -0.51472E-01  1448   0.465E+00    0.431E+01
DAV:  19    -0.144068615243E+03    0.48632E+01   -0.42178E+00  1272   0.851E+00    0.410E+01
DAV:  20    -0.145338457521E+03   -0.12698E+01   -0.37016E+00  1280   0.732E+00    0.404E+01
DAV:  21    -0.138611173076E+03    0.67273E+01   -0.16004E+01  1296   0.188E+01    0.346E+01
DAV:  22    -0.139977895178E+03   -0.13667E+01   -0.62027E+00  1352   0.739E+00    0.371E+01
DAV:  23    -0.139530388506E+03    0.44751E+00   -0.97960E-01  1240   0.332E+00    0.361E+01
DAV:  24    -0.137900680934E+03    0.16297E+01   -0.10175E+00  1328   0.359E+00    0.325E+01
DAV:  25    -0.136726023778E+03    0.11747E+01   -0.42088E+00  1280   0.453E+00    0.281E+01
DAV:  26    -0.136698069540E+03    0.27954E-01   -0.10672E-01  1312   0.971E-01    0.281E+01
DAV:  27    -0.136736251436E+03   -0.38182E-01   -0.21753E-02  1432   0.610E-01    0.278E+01
DAV:  28    -0.136726458234E+03    0.97932E-02   -0.78016E-03  1400   0.290E-01    0.276E+01
DAV:  29    -0.136557159536E+03    0.16930E+00   -0.51258E-02  1272   0.102E+00    0.277E+01
DAV:  30    -0.136349956190E+03    0.20720E+00   -0.28386E-01  1280   0.259E+00    0.273E+01
DAV:  31    -0.136744054378E+03   -0.39410E+00   -0.12175E-01  1384   0.119E+00    0.269E+01
DAV:  32    -0.137313884077E+03   -0.56983E+00   -0.19403E-01  1272   0.148E+00    0.271E+01
DAV:  33    -0.138446507783E+03   -0.11326E+01   -0.15717E+00  1304   0.299E+00    0.262E+01
DAV:  34    -0.139834806588E+03   -0.13883E+01   -0.22106E-01  1296   0.138E+00    0.268E+01
DAV:  35    -0.139791451213E+03    0.43355E-01   -0.20989E-02  1432   0.646E-01    0.272E+01
DAV:  36    -0.139341229551E+03    0.45022E+00   -0.73994E-03  1256   0.408E-01    0.268E+01
DAV:  37    -0.141611914521E+03   -0.22707E+01   -0.80560E-02  1176   0.145E+00    0.281E+01
DAV:  38    -0.142910068326E+03   -0.12982E+01   -0.61347E-02  1304   0.856E-01    0.282E+01
DAV:  39    -0.146886607427E+03   -0.39765E+01   -0.18381E-01  1176   0.130E+00    0.288E+01
DAV:  40    -0.153668369522E+03   -0.67818E+01   -0.30501E-01  1160   0.180E+00    0.303E+01
DAV:  41    -0.155502617481E+03   -0.18342E+01   -0.13959E-01  1608   0.110E+00    0.305E+01
DAV:  42    -0.156540441902E+03   -0.10378E+01   -0.10388E-01  1320   0.108E+00    0.306E+01
DAV:  43    -0.156535163344E+03    0.52786E-02   -0.64553E-03  1632   0.224E-01    0.306E+01
DAV:  44    -0.156470121626E+03    0.65042E-01   -0.72817E-03  1416   0.297E-01    0.303E+01
DAV:  45    -0.157665148253E+03   -0.11950E+01   -0.65933E-02  1288   0.757E-01    0.312E+01
DAV:  46    -0.157492440585E+03    0.17271E+00   -0.28853E-03  1352   0.218E-01    0.311E+01
DAV:  47    -0.156964415796E+03    0.52802E+00   -0.51980E-03  1232   0.310E-01    0.312E+01
DAV:  48    -0.156890061454E+03    0.74354E-01   -0.14641E-02  1320   0.425E-01    0.307E+01
DAV:  49    -0.157314181299E+03   -0.42412E+00   -0.70767E-03  1272   0.402E-01    0.305E+01
DAV:  50    -0.155505610603E+03    0.18086E+01   -0.51768E-02  1184   0.832E-01    0.303E+01
DAV:  51    -0.148306942634E+03    0.71987E+01   -0.28259E+01  1216   0.191E+01    0.477E+01
DAV:  52    -0.152988782723E+03   -0.46818E+01   -0.26786E+00  1336   0.478E+00    0.499E+01
DAV:  53    -0.155136849836E+03   -0.21481E+01   -0.13668E-01  1384   0.157E+00    0.507E+01
DAV:  54    -0.155410925091E+03   -0.27408E+00   -0.15192E-02  1344   0.322E-01    0.508E+01
DAV:  55    -0.152890167611E+03    0.25208E+01   -0.40920E-02  1344   0.887E-01    0.496E+01
DAV:  56    -0.196717126150E+03   -0.43827E+02   -0.29738E+01  1320   0.226E+01    0.719E+01
DAV:  57    -0.200096572465E+03   -0.33794E+01   -0.23364E+00  1256   0.751E+00    0.738E+01
DAV:  58    -0.220388084317E+03   -0.20292E+02   -0.90178E-01  1336   0.501E+00    0.816E+01
DAV:  59    -0.199268073425E+03    0.21120E+02   -0.20464E+00  1416   0.815E+00    0.741E+01
DAV:  60    -0.195613314624E+03    0.36548E+01   -0.42997E-01  1280   0.272E+00    0.722E+01
DAV:  61    -0.252195842316E+03   -0.56583E+02   -0.19766E+01  1400   0.274E+01    0.916E+01
DAV:  62    -0.178702566999E+03    0.73493E+02   -0.22890E+01  1464   0.214E+01    0.649E+01
DAV:  63    -0.169763330389E+03    0.89392E+01   -0.99696E+00  1328   0.102E+01    0.563E+01
DAV:  64    -0.159140058578E+03    0.10623E+02   -0.42390E+00  1376   0.811E+00    0.485E+01
DAV:  65    -0.159094093988E+03    0.45965E-01   -0.32465E-01  1264   0.161E+00    0.485E+01
DAV:  66    -0.154846715803E+03    0.42474E+01   -0.37620E+00  1448   0.648E+00    0.452E+01
DAV:  67    -0.154307023098E+03    0.53969E+00   -0.15958E-01  1320   0.121E+00    0.447E+01
DAV:  68    -0.156147003085E+03   -0.18400E+01   -0.65378E+00  1248   0.939E+00    0.446E+01
DAV:  69    -0.163601493302E+03   -0.74545E+01   -0.90936E+00  1312   0.139E+01    0.536E+01
DAV:  70    -0.166503852564E+03   -0.29024E+01   -0.12325E+00  1288   0.351E+00    0.544E+01
DAV:  71    -0.166602146757E+03   -0.98294E-01   -0.91614E-01  1248   0.417E+00    0.553E+01
DAV:  72    -0.166807037767E+03   -0.20489E+00   -0.60596E-02  1272   0.744E-01    0.554E+01
DAV:  73    -0.166741020826E+03    0.66017E-01   -0.26395E-03  1744   0.121E-01    0.554E+01
DAV:  74    -0.165564504288E+03    0.11765E+01   -0.97480E-02  1296   0.177E+00    0.548E+01
DAV:  75    -0.142383598126E+03    0.23181E+02   -0.11186E+01  1640   0.219E+01    0.379E+01
DAV:  76    -0.139577075622E+03    0.28065E+01   -0.89697E+00  1232   0.112E+01    0.359E+01
DAV:  77    -0.138717544664E+03    0.85953E+00   -0.13835E+00  1320   0.328E+00    0.345E+01
DAV:  78    -0.138248162870E+03    0.46938E+00   -0.41778E+00  1368   0.575E+00    0.330E+01
DAV:  79    -0.139661990081E+03   -0.14138E+01   -0.40085E+00  1352   0.751E+00    0.351E+01
DAV:  80    -0.138680711706E+03    0.98128E+00   -0.32099E-01  1288   0.219E+00
 -----------------------------------------------------------------------------
|                                                                             |
|           W    W    AA    RRRRR   N    N  II  N    N   GGGG   !!!           |
|           W    W   A  A   R    R  NN   N  II  NN   N  G    G  !!!           |
|           W    W  A    A  R    R  N N  N  II  N N  N  G       !!!           |
|           W WW W  AAAAAA  RRRRR   N  N N  II  N  N N  G  GGG   !            |
|           WW  WW  A    A  R   R   N   NN  II  N   NN  G    G                |
|           W    W  A    A  R    R  N    N  II  N    N   GGGG   !!!           |
|                                                                             |
|     The electronic self-consistency was not achieved in the given           |
|     number of steps (NELM). The forces and other quantities evaluated       |
|     might not be reliable so examine the results carefully. If you find     |
|     spurious results, we suggest increasing NELM, if you were close to      |
|     convergence or switching to a different ALGO or adjusting the           |
|     density mixing parameters otherwise.                                    |
|                                                                             |
 -----------------------------------------------------------------------------

   1 F= -.13868071E+03 E0= -.13865230E+03  d E =-.138681E+03
 curvature:   0.00 expect dE= 0.000E+00 dE for cont linesearch  0.000E+00
 trial: gam= 0.00000 g(F)=  0.112E+00 g(S)=  0.000E+00 ort = 0.000E+00 (trialstep = 0.100E+01)
 search vector abs. value=  0.112E+00
 bond charge predicted
       N       E                     dE             d eps       ncg     rms          rms(c)
DAV:   1    -0.135046544733E+03    0.46154E+01   -0.38830E+01  1232   0.144E+01    0.283E+01
DAV:   2    -0.663741411630E+03   -0.52869E+03   -0.21132E+03  2096   0.183E+02    0.227E+02
DAV:   3    -0.338114348653E+03    0.32563E+03   -0.81246E+02  1608   0.564E+01    0.120E+02
DAV:   4    -0.154497596037E+03    0.18362E+03   -0.11447E+03  1632   0.758E+01    0.646E+01
DAV:   5    -0.151619435722E+03    0.28782E+01   -0.29832E+02  1384   0.323E+01    0.444E+01
DAV:   6    -0.152233438702E+03   -0.61400E+00   -0.22940E+01  1464   0.830E+00    0.436E+01
DAV:   7    -0.155331798702E+03   -0.30984E+01   -0.50836E+00  1424   0.590E+00    0.449E+01
DAV:   8    -0.158087667966E+03   -0.27559E+01   -0.25018E+00  1416   0.248E+00    0.477E+01
DAV:   9    -0.169987199249E+03   -0.11900E+02   -0.22371E+00  1496   0.669E+00    0.553E+01
DAV:  10    -0.181750309590E+03   -0.11763E+02   -0.11139E+01  1552   0.966E+00    0.602E+01
DAV:  11    -0.181405954942E+03    0.34435E+00   -0.50777E-01  1312   0.207E+00    0.601E+01
DAV:  12    -0.176516152519E+03    0.48898E+01   -0.24584E+00  1336   0.584E+00    0.577E+01
DAV:  13    -0.152386143315E+03    0.24130E+02   -0.59754E+00  1360   0.143E+01    0.447E+01
DAV:  14    -0.143430899757E+03    0.89552E+01   -0.11389E+01  1344   0.153E+01    0.386E+01
DAV:  15    -0.135677845264E+03    0.77531E+01   -0.12835E+01  1272   0.155E+01    0.318E+01
DAV:  16    -0.142813785294E+03   -0.71359E+01   -0.20430E+01  1368   0.135E+01    0.341E+01
DAV:  17    -0.159093538029E+03   -0.16280E+02   -0.39071E+01  1504   0.147E+01    0.310E+01
DAV:  18    -0.135678522171E+03    0.23415E+02   -0.13826E+02  1472   0.175E+01    0.305E+01
DAV:  19    -0.139599169584E+03   -0.39206E+01   -0.12649E+01  1408   0.104E+01    0.323E+01
DAV:  20    -0.146763130337E+03   -0.71640E+01   -0.81623E+00  1512   0.119E+01    0.376E+01
DAV:  21    -0.144979697950E+03    0.17834E+01   -0.20474E+00  1376   0.434E+00    0.360E+01
DAV:  22    -0.143435060637E+03    0.15446E+01   -0.19696E+00  1320   0.286E+00    0.331E+01
DAV:  23    -0.148870689680E+03   -0.54356E+01   -0.10072E+01  1344   0.295E+00    0.355E+01
DAV:  24    -0.147212032305E+03    0.16587E+01   -0.30459E-01  1368   0.115E+00    0.348E+01
DAV:  25    -0.142780276417E+03    0.44318E+01   -0.12286E+00  1376   0.239E+00    0.318E+01
DAV:  26    -0.136867140811E+03    0.59131E+01   -0.59680E+00  1464   0.791E+00    0.252E+01
DAV:  27    -0.134244945260E+03    0.26222E+01   -0.24825E+00  1272   0.575E+00    0.208E+01
DAV:  28    -0.132644284218E+03    0.16007E+01   -0.46996E+00  1448   0.886E+00    0.236E+01
DAV:  29    -0.132251606541E+03    0.39268E+00   -0.54739E-01  1360   0.275E+00    0.212E+01
DAV:  30    -0.132052787899E+03    0.19882E+00   -0.12615E-01  1392   0.139E+00    0.207E+01
DAV:  31    -0.132010306390E+03    0.42482E-01   -0.51867E-02  1312   0.104E+00    0.209E+01
DAV:  32    -0.131633150303E+03    0.37716E+00   -0.62697E-02  1352   0.117E+00    0.191E+01
DAV:  33    -0.131188479655E+03    0.44467E+00   -0.12196E-01  1272   0.133E+00    0.176E+01
DAV:  34    -0.131157456449E+03    0.31023E-01   -0.13981E-02  1272   0.367E-01    0.177E+01
DAV:  35    -0.130682654630E+03    0.47480E+00   -0.17312E-01  1256   0.168E+00    0.160E+01
DAV:  36    -0.130141567637E+03    0.54109E+00   -0.33226E-01  1304   0.231E+00    0.139E+01
DAV:  37    -0.129786382130E+03    0.35519E+00   -0.31722E-01  1344   0.214E+00    0.127E+01
DAV:  38    -0.129643239060E+03    0.14314E+00   -0.71099E-02  1272   0.857E-01    0.125E+01
DAV:  39    -0.129483533526E+03    0.15971E+00   -0.86496E-02  1328   0.133E+00    0.121E+01
DAV:  40    -0.129302402271E+03    0.18113E+00   -0.12934E-01  1248   0.141E+00    0.113E+01
DAV:  41    -0.129280215339E+03    0.22187E-01   -0.69752E-02  1304   0.891E-01    0.108E+01
DAV:  42    -0.129274761462E+03    0.54539E-02   -0.18743E-01  1280   0.107E+00    0.105E+01
DAV:  43    -0.129248560429E+03    0.26201E-01   -0.16094E-02  1280   0.338E-01    0.103E+01
DAV:  44    -0.129209484201E+03    0.39076E-01   -0.12256E-01  1200   0.130E+00    0.966E+00
DAV:  45    -0.129199375852E+03    0.10108E-01   -0.21078E-02  1280   0.411E-01    0.926E+00
DAV:  46    -0.129204053941E+03   -0.46781E-02   -0.13878E-02  1232   0.328E-01    0.913E+00
DAV:  47    -0.131229108265E+03   -0.20251E+01   -0.90505E+00  1248   0.103E+01    0.194E+01
DAV:  48    -0.131046929420E+03    0.18218E+00   -0.58013E-01  1224   0.263E+00    0.180E+01
DAV:  49    -0.130904921325E+03    0.14201E+00   -0.10400E-01  1288   0.133E+00    0.177E+01
DAV:  50    -0.131475946567E+03   -0.57103E+00   -0.14595E+00  1304   0.384E+00    0.178E+01
DAV:  51    -0.131465067300E+03    0.10879E-01   -0.39019E-01  1208   0.184E+00    0.182E+01
DAV:  52    -0.133863716500E+03   -0.23986E+01   -0.58385E+00  1360   0.923E+00    0.237E+01
DAV:  53    -0.133862496980E+03    0.12195E-02   -0.74571E-01  1272   0.298E+00    0.230E+01
DAV:  54    -0.133937378637E+03   -0.74882E-01   -0.31281E-01  1296   0.245E+00    0.234E+01
DAV:  55    -0.133895278038E+03    0.42101E-01   -0.29879E-02  1272   0.530E-01    0.235E+01
DAV:  56    -0.132967133037E+03    0.92815E+00   -0.12567E-01  1320   0.144E+00    0.214E+01
DAV:  57    -0.130259697776E+03    0.27074E+01   -0.26405E+00  1232   0.561E+00    0.160E+01
DAV:  58    -0.130134475963E+03    0.12522E+00   -0.33343E-01  1248   0.191E+00    0.160E+01
DAV:  59    -0.129905761229E+03    0.22871E+00   -0.22921E-01  1248   0.231E+00    0.148E+01
DAV:  60    -0.129658319898E+03    0.24744E+00   -0.62847E-02  1304   0.923E-01    0.132E+01
DAV:  61    -0.129598783542E+03    0.59536E-01   -0.28837E-02  1264   0.539E-01    0.134E+01
DAV:  62    -0.129113402360E+03    0.48538E+00   -0.40947E-01  1280   0.210E+00    0.903E+00
DAV:  63    -0.129246073643E+03   -0.13267E+00   -0.99034E-02  1240   0.785E-01    0.110E+01
DAV:  64    -0.129105718583E+03    0.14036E+00   -0.11937E-01  1248   0.102E+00    0.907E+00
DAV:  65    -0.129040729474E+03    0.64989E-01   -0.13990E-01  1312   0.143E+00    0.931E+00
DAV:  66    -0.128795649703E+03    0.24508E+00   -0.44545E-01  1336   0.164E+00    0.516E+00
DAV:  67    -0.128763668048E+03    0.31982E-01   -0.11732E-01  1248   0.122E+00    0.421E+00
DAV:  68    -0.128802841468E+03   -0.39173E-01   -0.14683E-01  1272   0.104E+00    0.523E+00
DAV:  69    -0.128768298562E+03    0.34543E-01   -0.27343E-02  1240   0.523E-01    0.447E+00
DAV:  70    -0.128726272375E+03    0.42026E-01   -0.37279E-02  1288   0.816E-01    0.350E+00
DAV:  71    -0.128722680583E+03    0.35918E-02   -0.24693E-01  1416   0.139E+00    0.311E+00
DAV:  72    -0.128712927526E+03    0.97531E-02   -0.56864E-02  1320   0.854E-01    0.243E+00
DAV:  73    -0.128719524575E+03   -0.65970E-02   -0.90985E-03  1248   0.341E-01    0.253E+00
DAV:  74    -0.128717878971E+03    0.16456E-02   -0.14466E-01  1544   0.116E+00    0.329E+00
DAV:  75    -0.128691136216E+03    0.26743E-01   -0.49871E-02  1240   0.559E-01    0.170E+00
DAV:  76    -0.128717471202E+03   -0.26335E-01   -0.52958E-02  1360   0.711E-01    0.317E+00
DAV:  77    -0.128701866505E+03    0.15605E-01   -0.56909E-03  1280   0.345E-01    0.284E+00
DAV:  78    -0.128672876846E+03    0.28990E-01   -0.53517E-02  1552   0.749E-01    0.137E+00
DAV:  79    -0.128668785081E+03    0.40918E-02   -0.10668E-02  1216   0.330E-01    0.157E+00
DAV:  80    -0.128670488419E+03   -0.17033E-02   -0.43717E-03  1296   0.317E-01
 -----------------------------------------------------------------------------
|                                                                             |
|           W    W    AA    RRRRR   N    N  II  N    N   GGGG   !!!           |
|           W    W   A  A   R    R  NN   N  II  NN   N  G    G  !!!           |
|           W    W  A    A  R    R  N N  N  II  N N  N  G       !!!           |
|           W WW W  AAAAAA  RRRRR   N  N N  II  N  N N  G  GGG   !            |
|           WW  WW  A    A  R   R   N   NN  II  N   NN  G    G                |
|           W    W  A    A  R    R  N    N  II  N    N   GGGG   !!!           |
|                                                                             |
|     The electronic self-consistency was not achieved in the given           |
|     number of steps (NELM). The forces and other quantities evaluated       |
|     might not be reliable so examine the results carefully. If you find     |
|     spurious results, we suggest increasing NELM, if you were close to      |
|     convergence or switching to a different ALGO or adjusting the           |
|     density mixing parameters otherwise.                                    |
|                                                                             |
 -----------------------------------------------------------------------------

   2 F= -.12867049E+03 E0= -.12860199E+03  d E =0.100102E+02
 trial-energy change:   10.010223  1 .order   -0.061553   -0.112196   -0.010911
 step:   1.1077(harm=  1.1077)  dis= 0.03453  next Energy=  -138.742852 (dE=-0.621E-01)
 bond charge predicted
       N       E                     dE             d eps       ncg     rms          rms(c)
DAV:   1    -0.128659940882E+03    0.88442E-02   -0.37800E-01  1176   0.133E+00    0.773E-01
DAV:   2    -0.129246790692E+03   -0.58685E+00   -0.16084E+00  1696   0.370E+00    0.109E+01
DAV:   3    -0.128871152267E+03    0.37564E+00   -0.25775E+00  1768   0.508E+00    0.634E+00
DAV:   4    -0.128715196454E+03    0.15596E+00   -0.48544E-01  1720   0.294E+00    0.389E+00
DAV:   5    -0.128800732995E+03   -0.85537E-01   -0.17473E-01  1696   0.170E+00    0.583E+00
DAV:   6    -0.128787474042E+03    0.13259E-01   -0.94578E-03  1232   0.292E-01    0.536E+00
DAV:   7    -0.128669929403E+03    0.11754E+00   -0.38592E-01  1888   0.192E+00    0.154E+00
DAV:   8    -0.128661479913E+03    0.84495E-02   -0.11122E-02  1216   0.408E-01    0.783E-01
DAV:   9    -0.128663182030E+03   -0.17021E-02   -0.18600E-02  1352   0.522E-01    0.113E+00
DAV:  10    -0.128660473072E+03    0.27090E-02   -0.59636E-02  1552   0.735E-01    0.125E+00
DAV:  11    -0.128658696417E+03    0.17767E-02   -0.22408E-03  1224   0.190E-01    0.943E-01
DAV:  12    -0.128659193593E+03   -0.49718E-03   -0.55855E-04  1288   0.952E-02    0.956E-01
DAV:  13    -0.128656793465E+03    0.24001E-02   -0.41980E-03  1488   0.172E-01    0.452E-01
DAV:  14    -0.128656682813E+03    0.11065E-03   -0.31831E-04  1280   0.675E-02    0.389E-01
DAV:  15    -0.128657254465E+03   -0.57165E-03   -0.48979E-04  1352   0.607E-02    0.539E-01
DAV:  16    -0.128656619095E+03    0.63537E-03   -0.66743E-04  1376   0.100E-01    0.344E-01
DAV:  17    -0.128656870057E+03   -0.25096E-03   -0.19407E-04  1368   0.540E-02    0.412E-01
DAV:  18    -0.128656566878E+03    0.30318E-03   -0.59352E-04  1320   0.658E-02    0.257E-01
DAV:  19    -0.128656574243E+03   -0.73645E-05   -0.15426E-05  1192   0.116E-02    0.259E-01
DAV:  20    -0.128656530643E+03    0.43600E-04   -0.22749E-05   848   0.125E-02    0.240E-01
DAV:  21    -0.128656559349E+03   -0.28706E-04   -0.83133E-06   832   0.922E-03    0.250E-01
DAV:  22    -0.128656594351E+03   -0.35003E-04   -0.10817E-05  1104   0.107E-02    0.257E-01
DAV:  23    -0.128656577542E+03    0.16809E-04   -0.42783E-06   664   0.718E-03    0.253E-01
DAV:  24    -0.128656514274E+03    0.63268E-04   -0.61956E-05   992   0.227E-02    0.245E-01
DAV:  25    -0.128656473716E+03    0.40558E-04   -0.79306E-05  1248   0.218E-02    0.255E-01
DAV:  26    -0.128656459698E+03    0.14018E-04   -0.11054E-05  1144   0.977E-03    0.268E-01
DAV:  27    -0.128656447956E+03    0.11742E-04   -0.37093E-06   720   0.542E-03    0.277E-01
DAV:  28    -0.128656430285E+03    0.17671E-04   -0.63588E-06  1024   0.752E-03    0.291E-01
DAV:  29    -0.128656392370E+03    0.37915E-04   -0.13353E-05  1232   0.111E-02    0.307E-01
DAV:  30    -0.128656352052E+03    0.40318E-04   -0.15960E-05  1256   0.148E-02    0.312E-01
DAV:  31    -0.128656324306E+03    0.27746E-04   -0.72004E-06  1192   0.107E-02    0.290E-01
DAV:  32    -0.128656303530E+03    0.20776E-04   -0.49501E-06   952   0.833E-03    0.260E-01
DAV:  33    -0.128656266137E+03    0.37393E-04   -0.14080E-05  1216   0.145E-02    0.205E-01
DAV:  34    -0.128656226037E+03    0.40101E-04   -0.44044E-05  1248   0.279E-02    0.126E-01
DAV:  35    -0.128656218351E+03    0.76854E-05   -0.25624E-05  1216   0.152E-02    0.660E-02
DAV:  36    -0.128656218870E+03   -0.51892E-06   -0.18065E-05  1200   0.134E-02    0.355E-02
DAV:  37    -0.128656213787E+03    0.50830E-05   -0.27082E-06   704   0.564E-03    0.426E-02
DAV:  38    -0.128656211608E+03    0.21795E-05   -0.13843E-06   640   0.380E-03    0.512E-02
DAV:  39    -0.128656210449E+03    0.11590E-05   -0.58130E-06  1064   0.876E-03    0.790E-02
DAV:  40    -0.128656206135E+03    0.43140E-05   -0.58685E-07   648   0.241E-03    0.774E-02
DAV:  41    -0.128656205103E+03    0.10316E-05   -0.32799E-07   600   0.206E-03    0.764E-02
DAV:  42    -0.128656204680E+03    0.42329E-06   -0.44754E-07   624   0.267E-03
   3 F= -.12865620E+03 E0= -.12858651E+03  d E =0.100245E+02
 curvature:  -0.55 expect dE=-0.133E-01 dE for cont linesearch -0.824E-04
 trial: gam= 0.17682 g(F)=  0.239E-01 g(S)=  0.000E+00 ort = 0.409E-02 (trialstep = 0.102E+01)
 search vector abs. value=  0.289E-01
 bond charge predicted
       N       E                     dE             d eps       ncg     rms          rms(c)
DAV:   1    -0.128666752583E+03   -0.10547E-01   -0.80605E+00  1152   0.603E+00    0.477E-01
DAV:   2    -0.128707365843E+03   -0.40613E-01   -0.17916E-01  1216   0.128E+00    0.286E+00
DAV:   3    -0.128678304752E+03    0.29061E-01   -0.91004E-02  1272   0.763E-01    0.608E-01
DAV:   4    -0.128699837336E+03   -0.21533E-01   -0.55422E-02  1304   0.875E-01    0.283E+00
DAV:   5    -0.128687863175E+03    0.11974E-01   -0.13372E-02  1288   0.411E-01    0.192E+00
DAV:   6    -0.128705945655E+03   -0.18082E-01   -0.69797E-02  1480   0.825E-01    0.295E+00
DAV:   7    -0.128693248631E+03    0.12697E-01   -0.12393E-02  1448   0.473E-01    0.225E+00
DAV:   8    -0.128675037727E+03    0.18211E-01   -0.47684E-02  1472   0.578E-01    0.457E-01
DAV:   9    -0.128682834257E+03   -0.77965E-02   -0.31951E-02  1544   0.543E-01    0.139E+00
DAV:  10    -0.128675970945E+03    0.68633E-02   -0.49285E-02  1456   0.636E-01    0.572E-01
DAV:  11    -0.128674644813E+03    0.13261E-02   -0.17117E-03  1280   0.143E-01    0.244E-01
DAV:  12    -0.128674487760E+03    0.15705E-03   -0.12993E-03  1320   0.110E-01    0.140E-01
DAV:  13    -0.128674465523E+03    0.22237E-04   -0.42709E-04  1280   0.654E-02    0.131E-01
DAV:  14    -0.128674566496E+03   -0.10097E-03   -0.26652E-04  1376   0.456E-02    0.223E-01
DAV:  15    -0.128674696245E+03   -0.12975E-03   -0.12854E-04  1232   0.291E-02    0.298E-01
DAV:  16    -0.128674518962E+03    0.17728E-03   -0.16721E-04  1360   0.376E-02    0.198E-01
DAV:  17    -0.128674426772E+03    0.92190E-04   -0.26257E-04  1384   0.437E-02    0.858E-02
DAV:  18    -0.128674426097E+03    0.67533E-06   -0.15892E-05  1184   0.132E-02    0.716E-02
DAV:  19    -0.128674419300E+03    0.67966E-05   -0.27594E-06   728   0.755E-03    0.540E-02
DAV:  20    -0.128674417002E+03    0.22982E-05   -0.15913E-06   680   0.432E-03    0.404E-02
DAV:  21    -0.128674416217E+03    0.78505E-06   -0.11662E-06   656   0.388E-03
   4 F= -.12867442E+03 E0= -.12860624E+03  d E =-.182115E-01
 trial-energy change:   -0.018212  1 .order   -0.016434   -0.025179   -0.007689
 step:   1.2764(harm=  1.4706)  dis= 0.02055  next Energy=  -128.675403 (dE=-0.192E-01)
 bond charge predicted
       N       E                     dE             d eps       ncg     rms          rms(c)
DAV:   1    -0.128675047899E+03   -0.63090E-03   -0.50149E-01  1152   0.150E+00    0.132E-01
DAV:   2    -0.128675963941E+03   -0.91604E-03   -0.63382E-03  1192   0.243E-01    0.324E-01
DAV:   3    -0.128680069892E+03   -0.41060E-02   -0.11740E-02  1376   0.374E-01    0.113E+00
DAV:   4    -0.128678097567E+03    0.19723E-02   -0.36401E-03  1248   0.149E-01    0.807E-01
DAV:   5    -0.128677152742E+03    0.94482E-03   -0.17772E-03  1328   0.128E-01    0.742E-01
DAV:   6    -0.128677137161E+03    0.15581E-04   -0.20886E-04  1256   0.524E-02    0.662E-01
DAV:   7    -0.128676364690E+03    0.77247E-03   -0.50400E-04  1304   0.762E-02    0.490E-01
DAV:   8    -0.128675626476E+03    0.73821E-03   -0.32917E-03  1808   0.187E-01    0.190E-01
DAV:   9    -0.128676603068E+03   -0.97659E-03   -0.19816E-03  1424   0.126E-01    0.499E-01
DAV:  10    -0.128675532821E+03    0.10702E-02   -0.26503E-03  1392   0.144E-01    0.733E-02
DAV:  11    -0.128675531479E+03    0.13415E-05   -0.31978E-05  1240   0.182E-02    0.540E-02
DAV:  12    -0.128675532406E+03   -0.92696E-06   -0.99479E-05  1200   0.301E-02    0.592E-02
DAV:  13    -0.128675532238E+03    0.16869E-06   -0.96329E-06  1088   0.132E-02
   5 F= -.12867553E+03 E0= -.12860774E+03  d E =-.193276E-01
 curvature:  -0.70 expect dE=-0.639E-02 dE for cont linesearch -0.455E-03
 ZBRENT: increasing intervall
 opt :   1.7862  next Energy=  -128.676113 (dE=-0.199E-01)
 bond charge predicted
       N       E                     dE             d eps       ncg     rms          rms(c)
DAV:   1    -0.128673553160E+03    0.19792E-02   -0.20087E+00  1152   0.301E+00    0.287E-01
DAV:   2    -0.128680350638E+03   -0.67975E-02   -0.28488E-02  1192   0.565E-01    0.102E+00
DAV:   3    -0.128695244966E+03   -0.14894E-01   -0.52495E-02  1424   0.972E-01    0.218E+00
DAV:   4    -0.128694677950E+03    0.56702E-03   -0.64699E-02  1400   0.652E-01    0.239E+00
DAV:   5    -0.128680959386E+03    0.13719E-01   -0.32055E-02  1336   0.471E-01    0.123E+00
DAV:   6    -0.128682861680E+03   -0.19023E-02   -0.38886E-03  1392   0.229E-01    0.143E+00
DAV:   7    -0.128682757182E+03    0.10450E-03   -0.42454E-03  1416   0.185E-01    0.141E+00
DAV:   8    -0.128675658642E+03    0.70985E-02   -0.23508E-02  1784   0.439E-01    0.254E-01
DAV:   9    -0.128677341526E+03   -0.16829E-02   -0.34998E-03  1328   0.190E-01    0.632E-01
DAV:  10    -0.128675820126E+03    0.15214E-02   -0.11244E-02  1456   0.295E-01    0.316E-01
DAV:  11    -0.128675640127E+03    0.18000E-03   -0.23777E-04  1224   0.538E-02    0.219E-01
DAV:  12    -0.128675507022E+03    0.13310E-03   -0.10330E-04  1288   0.438E-02    0.137E-01
DAV:  13    -0.128675485919E+03    0.21103E-04   -0.23664E-04  1320   0.424E-02    0.831E-02
DAV:  14    -0.128675485293E+03    0.62597E-06   -0.18841E-05  1184   0.134E-02    0.662E-02
DAV:  15    -0.128675477361E+03    0.79321E-05   -0.49616E-05   816   0.188E-02    0.580E-02
DAV:  16    -0.128675483491E+03   -0.61298E-05   -0.19422E-05   872   0.116E-02    0.761E-02
DAV:  17    -0.128675478568E+03    0.49228E-05   -0.79374E-06   728   0.896E-03    0.560E-02
DAV:  18    -0.128675470712E+03    0.78558E-05   -0.14037E-05   760   0.108E-02    0.259E-02
DAV:  19    -0.128675471492E+03   -0.77958E-06   -0.23641E-06   728   0.500E-03
   6 F= -.12867547E+03 E0= -.12860851E+03  d E =-.192668E-01
 curvature:  -0.89 expect dE=-0.953E-02 dE for cont linesearch -0.878E-05
 trial: gam= 0.57861 g(F)=  0.107E-01 g(S)=  0.000E+00 ort = 0.533E-03 (trialstep = 0.117E+01)
 search vector abs. value=  0.209E-01
 bond charge predicted
       N       E                     dE             d eps       ncg     rms          rms(c)
DAV:   1    -0.128678456834E+03   -0.29861E-02   -0.78117E+00  1152   0.591E+00    0.400E-01
DAV:   2    -0.128696973853E+03   -0.18517E-01   -0.12940E-01  1232   0.101E+00    0.160E+00
DAV:   3    -0.128748105602E+03   -0.51132E-01   -0.38516E-01  1504   0.160E+00    0.387E+00
DAV:   4    -0.128714920740E+03    0.33185E-01   -0.34534E-01  1536   0.152E+00    0.241E+00
DAV:   5    -0.128706701861E+03    0.82189E-02   -0.44638E-03  1248   0.208E-01    0.195E+00
DAV:   6    -0.128700252400E+03    0.64495E-02   -0.44011E-02  1864   0.640E-01    0.180E+00
DAV:   7    -0.128695594689E+03    0.46577E-02   -0.94662E-03  1304   0.236E-01    0.146E+00
DAV:   8    -0.128711638908E+03   -0.16044E-01   -0.88748E-02  1832   0.817E-01    0.250E+00
DAV:   9    -0.128689711193E+03    0.21928E-01   -0.24796E-02  1496   0.551E-01    0.888E-01
DAV:  10    -0.128688054192E+03    0.16570E-02   -0.12544E-02  1448   0.298E-01    0.695E-01
DAV:  11    -0.128686601165E+03    0.14530E-02   -0.29508E-03  1304   0.188E-01    0.374E-01
DAV:  12    -0.128688174028E+03   -0.15729E-02   -0.40864E-03  1360   0.195E-01    0.632E-01
DAV:  13    -0.128686605280E+03    0.15687E-02   -0.96120E-03  1504   0.273E-01    0.370E-01
DAV:  14    -0.128686381187E+03    0.22409E-03   -0.14569E-04  1224   0.370E-02    0.302E-01
DAV:  15    -0.128686510005E+03   -0.12882E-03   -0.11845E-04  1336   0.352E-02    0.373E-01
DAV:  16    -0.128686283013E+03    0.22699E-03   -0.25162E-04  1400   0.546E-02    0.265E-01
DAV:  17    -0.128686239667E+03    0.43346E-04   -0.47881E-05  1224   0.271E-02    0.204E-01
DAV:  18    -0.128686229509E+03    0.10158E-04   -0.33408E-05  1208   0.208E-02    0.177E-01
DAV:  19    -0.128686233683E+03   -0.41742E-05   -0.16576E-06   744   0.386E-03    0.176E-01
DAV:  20    -0.128686237679E+03   -0.39955E-05   -0.58936E-07   648   0.252E-03    0.183E-01
DAV:  21    -0.128686224231E+03    0.13447E-04   -0.91055E-06   800   0.824E-03    0.162E-01
DAV:  22    -0.128686213353E+03    0.10878E-04   -0.14620E-05  1064   0.106E-02    0.122E-01
DAV:  23    -0.128686214736E+03   -0.13824E-05   -0.26175E-05  1160   0.167E-02    0.666E-02
DAV:  24    -0.128686228564E+03   -0.13828E-04   -0.40741E-06   896   0.752E-03    0.539E-02
DAV:  25    -0.128686237156E+03   -0.85921E-05   -0.40830E-06   944   0.713E-03    0.389E-02
DAV:  26    -0.128686247189E+03   -0.10033E-04   -0.19451E-05  1168   0.134E-02    0.352E-02
DAV:  27    -0.128686248316E+03   -0.11277E-05   -0.49766E-06   720   0.715E-03    0.464E-02
DAV:  28    -0.128686248245E+03    0.71770E-07   -0.86043E-07   648   0.309E-03
   7 F= -.12868625E+03 E0= -.12861959E+03  d E =-.107768E-01
 ZBRENT: can't locate minimum, use default step
 trial-energy change:   -0.010777  1 .order   -0.013064   -0.012884   -0.013244
 step:   4.6979(harm=  4.6979)  dis= 0.04991  next Energy=  -128.729885 (dE=-0.544E-01)
 bond charge predicted
       N       E                     dE             d eps       ncg     rms          rms(c)
DAV:   1    -0.128604161990E+03    0.82086E-01   -0.70727E+01  1152   0.178E+01    0.122E+00
DAV:   2    -0.129534117372E+03   -0.92996E+00   -0.35176E+00  1216   0.504E+00    0.131E+01
DAV:   3    -0.129063012795E+03    0.47110E+00   -0.22675E+00  1384   0.679E+00    0.804E+00
DAV:   4    -0.128843740216E+03    0.21927E+00   -0.15206E+00  1432   0.407E+00    0.584E+00
DAV:   5    -0.128874536670E+03   -0.30796E-01   -0.47779E-02  1248   0.603E-01    0.622E+00
DAV:   6    -0.129006397830E+03   -0.13186E+00   -0.48529E-02  1568   0.864E-01    0.783E+00
DAV:   7    -0.129009266579E+03   -0.28687E-02   -0.30794E-03  1240   0.185E-01    0.783E+00
DAV:   8    -0.128956164858E+03    0.53102E-01   -0.21016E-02  1616   0.567E-01    0.721E+00
DAV:   9    -0.128969001457E+03   -0.12837E-01   -0.54364E-02  1656   0.865E-01    0.732E+00
DAV:  10    -0.128763253211E+03    0.20575E+00   -0.16706E-01  1672   0.147E+00    0.405E+00
DAV:  11    -0.128718549084E+03    0.44704E-01   -0.11582E-01  1368   0.127E+00    0.314E+00
DAV:  12    -0.128699041606E+03    0.19507E-01   -0.47642E-02  1288   0.617E-01    0.237E+00
DAV:  13    -0.128695290797E+03    0.37508E-02   -0.44749E-02  1368   0.793E-01    0.195E+00
DAV:  14    -0.128682923703E+03    0.12367E-01   -0.35227E-02  1280   0.500E-01    0.146E+00
DAV:  15    -0.128683889090E+03   -0.96539E-03   -0.14758E-02  1336   0.366E-01    0.181E+00
DAV:  16    -0.128680437498E+03    0.34516E-02   -0.54871E-03  1248   0.171E-01    0.139E+00
DAV:  17    -0.128675501428E+03    0.49361E-02   -0.11467E-02  1344   0.377E-01    0.822E-01
DAV:  18    -0.128676756243E+03   -0.12548E-02   -0.54489E-03  1312   0.229E-01    0.111E+00
DAV:  19    -0.128678302962E+03   -0.15467E-02   -0.43880E-03  1336   0.153E-01    0.139E+00
DAV:  20    -0.128677881357E+03    0.42161E-03   -0.14233E-03  1256   0.129E-01    0.139E+00
DAV:  21    -0.128674946831E+03    0.29345E-02   -0.12932E-03  1264   0.111E-01    0.942E-01
DAV:  22    -0.128675043022E+03   -0.96191E-04   -0.16093E-04  1184   0.346E-02    0.970E-01
DAV:  23    -0.128674429365E+03    0.61366E-03   -0.30714E-04  1400   0.463E-02    0.846E-01
DAV:  24    -0.128674213361E+03    0.21600E-03   -0.87054E-05  1232   0.313E-02    0.770E-01
DAV:  25    -0.128673138701E+03    0.10747E-02   -0.13132E-03  1352   0.136E-01    0.451E-01
DAV:  26    -0.128672848471E+03    0.29023E-03   -0.49093E-04  1208   0.701E-02    0.312E-01
DAV:  27    -0.128672861938E+03   -0.13467E-04   -0.14044E-04  1344   0.375E-02    0.310E-01
DAV:  28    -0.128672860010E+03    0.19275E-05   -0.44636E-05  1304   0.244E-02    0.304E-01
DAV:  29    -0.128672764219E+03    0.95791E-04   -0.94655E-05  1280   0.269E-02    0.255E-01
DAV:  30    -0.128672721261E+03    0.42958E-04   -0.15340E-04  1184   0.331E-02    0.254E-01
DAV:  31    -0.128672705376E+03    0.15885E-04   -0.43401E-05  1304   0.205E-02    0.257E-01
DAV:  32    -0.128672604770E+03    0.10061E-03   -0.10291E-04  1256   0.293E-02    0.172E-01
DAV:  33    -0.128672559999E+03    0.44771E-04   -0.55002E-05  1232   0.190E-02    0.106E-01
DAV:  34    -0.128672559578E+03    0.42096E-06   -0.72456E-06  1088   0.102E-02
   8 F= -.12867256E+03 E0= -.12860634E+03  d E =0.291191E-02
 curvature:  -6.81 expect dE=-0.857E+00 dE for cont linesearch -0.203E+00
 ZBRENT: interpolating
 opt :   2.2699  next Energy=  -128.692425 (dE=-0.170E-01)
 bond charge predicted
       N       E                     dE             d eps       ncg     rms          rms(c)
DAV:   1    -0.128665627907E+03    0.69321E-02   -0.33560E+01  1152   0.122E+01    0.837E-01
DAV:   2    -0.128719915493E+03   -0.54288E-01   -0.43019E-01  1208   0.193E+00    0.216E+00
DAV:   3    -0.129312121194E+03   -0.59221E+00   -0.19893E+00  1632   0.428E+00    0.106E+01
DAV:   4    -0.128797161560E+03    0.51496E+00   -0.70347E-01  1584   0.302E+00    0.435E+00
DAV:   5    -0.128741409695E+03    0.55752E-01   -0.25755E-02  1328   0.769E-01    0.330E+00
DAV:   6    -0.128765372165E+03   -0.23962E-01   -0.19004E-02  1288   0.690E-01    0.366E+00
DAV:   7    -0.128740772922E+03    0.24599E-01   -0.11261E-02  1296   0.428E-01    0.293E+00
DAV:   8    -0.128709343353E+03    0.31430E-01   -0.90528E-02  1592   0.101E+00    0.170E+00
DAV:   9    -0.128713938981E+03   -0.45956E-02   -0.29341E-02  1376   0.751E-01    0.136E+00
DAV:  10    -0.128706338231E+03    0.76008E-02   -0.80372E-02  1456   0.942E-01    0.115E+00
DAV:  11    -0.128699372468E+03    0.69658E-02   -0.16584E-02  1256   0.396E-01    0.450E-01
DAV:  12    -0.128702690280E+03   -0.33178E-02   -0.11963E-02  1600   0.357E-01    0.111E+00
DAV:  13    -0.128698470420E+03    0.42199E-02   -0.94672E-03  1296   0.289E-01    0.212E-01
DAV:  14    -0.128698795722E+03   -0.32530E-03   -0.38675E-03  1368   0.156E-01    0.409E-01
DAV:  15    -0.128698379377E+03    0.41634E-03   -0.12264E-03  1304   0.941E-02    0.205E-01
DAV:  16    -0.128698506992E+03   -0.12761E-03   -0.15100E-03  1432   0.963E-02    0.306E-01
DAV:  17    -0.128698802575E+03   -0.29558E-03   -0.69103E-04  1248   0.810E-02    0.383E-01
DAV:  18    -0.128698340378E+03    0.46220E-03   -0.59441E-04  1264   0.586E-02    0.175E-01
DAV:  19    -0.128698191493E+03    0.14888E-03   -0.86039E-04  1648   0.810E-02    0.146E-01
DAV:  20    -0.128698184632E+03    0.68616E-05   -0.31631E-05  1224   0.167E-02    0.127E-01
DAV:  21    -0.128698168942E+03    0.15690E-04   -0.35530E-05   808   0.146E-02    0.946E-02
DAV:  22    -0.128698170825E+03   -0.18828E-05   -0.26089E-05   952   0.141E-02    0.784E-02
DAV:  23    -0.128698157247E+03    0.13578E-04   -0.28367E-05   904   0.160E-02    0.577E-02
DAV:  24    -0.128698155219E+03    0.20277E-05   -0.10506E-05   752   0.970E-03    0.650E-02
DAV:  25    -0.128698152243E+03    0.29760E-05   -0.22567E-06   728   0.454E-03    0.578E-02
DAV:  26    -0.128698149926E+03    0.23172E-05   -0.11198E-06   664   0.373E-03    0.475E-02
DAV:  27    -0.128698149456E+03    0.46939E-06   -0.43980E-07   600   0.274E-03
   9 F= -.12869815E+03 E0= -.12863168E+03  d E =-.226780E-01
 curvature:  -0.21 expect dE=-0.421E-02 dE for cont linesearch -0.200E-03
 ZBRENT: interpolating
 opt :   2.8860  next Energy=  -128.699746 (dE=-0.243E-01)
 bond charge predicted
       N       E                     dE             d eps       ncg     rms          rms(c)
DAV:   1    -0.128697966700E+03    0.18323E-03   -0.21557E+00  1152   0.310E+00    0.214E-01
DAV:   2    -0.128718260623E+03   -0.20294E-01   -0.90061E-02  1224   0.772E-01    0.229E+00
DAV:   3    -0.128705298325E+03    0.12962E-01   -0.13211E-01  1296   0.931E-01    0.110E+00
DAV:   4    -0.128712052585E+03   -0.67543E-02   -0.39476E-02  1432   0.723E-01    0.163E+00
DAV:   5    -0.128708191341E+03    0.38612E-02   -0.17078E-03  1224   0.146E-01    0.127E+00
DAV:   6    -0.128702144417E+03    0.60469E-02   -0.71397E-03  1648   0.321E-01    0.734E-01
DAV:   7    -0.128704731032E+03   -0.25866E-02   -0.85993E-03  1464   0.258E-01    0.102E+00
DAV:   8    -0.128700503447E+03    0.42276E-02   -0.88195E-03  1528   0.320E-01    0.365E-01
DAV:   9    -0.128700213798E+03    0.28965E-03   -0.19615E-03  1256   0.146E-01    0.163E-01
DAV:  10    -0.128700172446E+03    0.41352E-04   -0.76584E-04  1248   0.807E-02    0.194E-01
DAV:  11    -0.128700165402E+03    0.70442E-05   -0.14965E-03  1512   0.110E-01    0.223E-01
DAV:  12    -0.128700376539E+03   -0.21114E-03   -0.25587E-03  1512   0.145E-01    0.288E-01
DAV:  13    -0.128700317359E+03    0.59180E-04   -0.35160E-03  1584   0.169E-01    0.280E-01
DAV:  14    -0.128700023731E+03    0.29363E-03   -0.47906E-04  1304   0.584E-02    0.898E-02
DAV:  15    -0.128700028516E+03   -0.47856E-05   -0.49964E-05  1272   0.259E-02    0.840E-02
DAV:  16    -0.128700060624E+03   -0.32108E-04   -0.67663E-05  1096   0.234E-02    0.124E-01
DAV:  17    -0.128700069728E+03   -0.91047E-05   -0.12368E-05   800   0.878E-03    0.135E-01
DAV:  18    -0.128700025960E+03    0.43769E-04   -0.61080E-05   856   0.237E-02    0.628E-02
DAV:  19    -0.128700029693E+03   -0.37331E-05   -0.82580E-06   864   0.846E-03    0.431E-02
DAV:  20    -0.128700030888E+03   -0.11952E-05   -0.17662E-06   664   0.545E-03    0.289E-02
DAV:  21    -0.128700032544E+03   -0.16554E-05   -0.94450E-07   648   0.332E-03    0.282E-02
DAV:  22    -0.128700034781E+03   -0.22372E-05   -0.24403E-06   648   0.374E-03    0.342E-02
DAV:  23    -0.128700034707E+03    0.73866E-07   -0.98258E-07   624   0.360E-03
  10 F= -.12870003E+03 E0= -.12863357E+03  d E =-.245632E-01
 curvature:  -1.65 expect dE=-0.564E-01 dE for cont linesearch -0.964E-03
 ZBRENT: interpolating
 opt :   2.6166  next Energy=  -128.700506 (dE=-0.250E-01)
 bond charge predicted
       N       E                     dE             d eps       ncg     rms          rms(c)
DAV:   1    -0.128699420631E+03    0.61415E-03   -0.41251E-01  1152   0.136E+00    0.937E-02
DAV:   2    -0.128701358350E+03   -0.19377E-02   -0.10282E-02  1216   0.276E-01    0.630E-01
DAV:   3    -0.128701321841E+03    0.36509E-04   -0.20918E-02  1344   0.342E-01    0.656E-01
DAV:   4    -0.128701814350E+03   -0.49251E-03   -0.82996E-03  1472   0.306E-01    0.673E-01
DAV:   5    -0.128700737777E+03    0.10766E-02   -0.43513E-04  1224   0.817E-02    0.442E-01
DAV:   6    -0.128700277466E+03    0.46031E-03   -0.17083E-04  1264   0.617E-02    0.340E-01
DAV:   7    -0.128700234328E+03    0.43138E-04   -0.15007E-04  1288   0.547E-02    0.303E-01
DAV:   8    -0.128699816752E+03    0.41758E-03   -0.56771E-04  1544   0.934E-02    0.747E-02
DAV:   9    -0.128699909137E+03   -0.92385E-04   -0.26927E-04  1272   0.563E-02    0.149E-01
DAV:  10    -0.128699863868E+03    0.45269E-04   -0.75666E-04  1368   0.776E-02    0.100E-01
DAV:  11    -0.128699856600E+03    0.72689E-05   -0.45787E-04  1232   0.599E-02    0.966E-02
DAV:  12    -0.128699833100E+03    0.23500E-04   -0.13223E-04  1128   0.333E-02    0.428E-02
DAV:  13    -0.128699825017E+03    0.80824E-05   -0.94121E-06  1000   0.166E-02    0.256E-02
DAV:  14    -0.128699827917E+03   -0.28994E-05   -0.13672E-05   912   0.164E-02    0.288E-02
DAV:  15    -0.128699826342E+03    0.15752E-05   -0.88872E-06   696   0.104E-02    0.249E-02
DAV:  16    -0.128699827480E+03   -0.11388E-05   -0.96014E-07   664   0.455E-03    0.278E-02
DAV:  17    -0.128699826348E+03    0.11324E-05   -0.30378E-06   656   0.541E-03    0.219E-02
DAV:  18    -0.128699827107E+03   -0.75891E-06   -0.22314E-06   696   0.454E-03
  11 F= -.12869983E+03 E0= -.12863336E+03  d E =-.243556E-01
 curvature:  -0.81 expect dE=-0.213E-01 dE for cont linesearch -0.180E-05
 trial: gam= 2.52187 g(F)=  0.263E-01 g(S)=  0.000E+00 ort = 0.216E-03 (trialstep = 0.191E+00)
 search vector abs. value=  0.161E+00
 bond charge predicted
       N       E                     dE             d eps       ncg     rms          rms(c)
DAV:   1    -0.128703873410E+03   -0.40471E-02   -0.15841E+00  1152   0.264E+00    0.193E-01
DAV:   2    -0.128707096996E+03   -0.32236E-02   -0.21511E-02  1208   0.452E-01    0.573E-01
DAV:   3    -0.128729171406E+03   -0.22074E-01   -0.10418E-01  1504   0.844E-01    0.262E+00
DAV:   4    -0.128712613458E+03    0.16558E-01   -0.17414E-01  1600   0.969E-01    0.125E+00
DAV:   5    -0.128711213118E+03    0.14003E-02   -0.13472E-03  1232   0.101E-01    0.112E+00
DAV:   6    -0.128710243038E+03    0.97008E-03   -0.15415E-02  1776   0.317E-01    0.871E-01
DAV:   7    -0.128709629849E+03    0.61319E-03   -0.21508E-04  1224   0.456E-02    0.804E-01
DAV:   8    -0.128710710184E+03   -0.10803E-02   -0.22895E-02  1936   0.444E-01    0.119E+00
DAV:   9    -0.128706817615E+03    0.38926E-02   -0.64988E-03  1336   0.200E-01    0.610E-01
DAV:  10    -0.128706104415E+03    0.71320E-03   -0.66258E-04  1256   0.797E-02    0.467E-01
DAV:  11    -0.128705409077E+03    0.69534E-03   -0.28917E-03  1600   0.138E-01    0.202E-01
DAV:  12    -0.128705556316E+03   -0.14724E-03   -0.59128E-04  1304   0.732E-02    0.273E-01
DAV:  13    -0.128705378176E+03    0.17814E-03   -0.13456E-03  1512   0.114E-01    0.139E-01
DAV:  14    -0.128705383694E+03   -0.55186E-05   -0.68388E-04  1384   0.807E-02    0.203E-01
DAV:  15    -0.128705300921E+03    0.82774E-04   -0.50587E-05  1232   0.222E-02    0.143E-01
DAV:  16    -0.128705318739E+03   -0.17818E-04   -0.19368E-05  1176   0.139E-02    0.166E-01
DAV:  17    -0.128705285336E+03    0.33403E-04   -0.43089E-05   784   0.212E-02    0.117E-01
DAV:  18    -0.128705297776E+03   -0.12440E-04   -0.47328E-06   696   0.732E-03    0.128E-01
DAV:  19    -0.128705296252E+03    0.15240E-05   -0.19121E-06   656   0.488E-03    0.123E-01
DAV:  20    -0.128705305717E+03   -0.94658E-05   -0.12488E-05   688   0.930E-03    0.139E-01
DAV:  21    -0.128705315316E+03   -0.95990E-05   -0.10620E-05   704   0.820E-03    0.155E-01
DAV:  22    -0.128705324552E+03   -0.92357E-05   -0.50387E-06   672   0.577E-03    0.166E-01
DAV:  23    -0.128705323582E+03    0.97061E-06   -0.78681E-07   624   0.306E-03
  12 F= -.12870532E+03 E0= -.12863887E+03  d E =-.549647E-02
 trial-energy change:   -0.005496  1 .order   -0.004064   -0.005126   -0.003002
 step:   0.2357(harm=  0.4603)  dis= 0.00848  next Energy=  -128.705696 (dE=-0.587E-02)
 bond charge predicted
       N       E                     dE             d eps       ncg     rms          rms(c)
DAV:   1    -0.128706112313E+03   -0.78776E-03   -0.87915E-02  1152   0.621E-01    0.158E-01
DAV:   2    -0.128846708682E+03   -0.14060E+00   -0.43312E-01  1856   0.170E+00    0.600E+00
DAV:   3    -0.128724045643E+03    0.12266E+00   -0.61886E-01  1872   0.220E+00    0.192E+00
DAV:   4    -0.128713737371E+03    0.10308E-01   -0.98220E-03  1320   0.256E-01    0.127E+00
DAV:   5    -0.128710680224E+03    0.30571E-02   -0.86857E-03  1472   0.404E-01    0.103E+00
DAV:   6    -0.128709219774E+03    0.14604E-02   -0.31895E-02  1768   0.517E-01    0.816E-01
DAV:   7    -0.128706529330E+03    0.26904E-02   -0.65008E-03  1376   0.235E-01    0.196E-01
DAV:   8    -0.128706663926E+03   -0.13460E-03   -0.50991E-03  1712   0.191E-01    0.378E-01
DAV:   9    -0.128706644969E+03    0.18956E-04   -0.79127E-05  1240   0.273E-02    0.380E-01
DAV:  10    -0.128706522426E+03    0.12254E-03   -0.53407E-05  1288   0.200E-02    0.331E-01
DAV:  11    -0.128706153225E+03    0.36920E-03   -0.10676E-03  1536   0.752E-02    0.662E-02
DAV:  12    -0.128706167102E+03   -0.13877E-04   -0.49676E-05  1240   0.239E-02    0.403E-02
DAV:  13    -0.128706185679E+03   -0.18578E-04   -0.25671E-05  1160   0.155E-02    0.643E-02
DAV:  14    -0.128706177729E+03    0.79503E-05   -0.68808E-06   808   0.125E-02    0.439E-02
DAV:  15    -0.128706190140E+03   -0.12411E-04   -0.14113E-05   880   0.150E-02    0.562E-02
DAV:  16    -0.128706184630E+03    0.55105E-05   -0.79300E-06   696   0.821E-03    0.378E-02
DAV:  17    -0.128706186973E+03   -0.23437E-05   -0.60485E-06   704   0.719E-03    0.237E-02
DAV:  18    -0.128706190336E+03   -0.33624E-05   -0.34980E-06   688   0.541E-03    0.247E-02
DAV:  19    -0.128706192394E+03   -0.20585E-05   -0.95697E-07   640   0.301E-03    0.263E-02
DAV:  20    -0.128706192704E+03   -0.30943E-06   -0.10106E-06   672   0.455E-03
  13 F= -.12870619E+03 E0= -.12863966E+03  d E =-.636560E-02
 curvature:  -0.42 expect dE=-0.157E-01 dE for cont linesearch -0.388E-03
 ZBRENT: increasing intervall
 opt :   0.3256  next Energy=  -128.706967 (dE=-0.714E-02)
 bond charge predicted
       N       E                     dE             d eps       ncg     rms          rms(c)
DAV:   1    -0.128707044016E+03   -0.85162E-03   -0.35192E-01  1152   0.124E+00    0.922E-02
DAV:   2    -0.128707612068E+03   -0.56805E-03   -0.45044E-03  1160   0.201E-01    0.240E-01
DAV:   3    -0.128709237300E+03   -0.16252E-02   -0.94894E-03  1352   0.239E-01    0.710E-01
DAV:   4    -0.128707811067E+03    0.14262E-02   -0.10146E-02  1352   0.252E-01    0.332E-01
DAV:   5    -0.128709067118E+03   -0.12561E-02   -0.58103E-03  1544   0.271E-01    0.600E-01
DAV:   6    -0.128708364280E+03    0.70284E-03   -0.37665E-04  1224   0.570E-02    0.435E-01
DAV:   7    -0.128707580082E+03    0.78420E-03   -0.39921E-04  1536   0.114E-01    0.255E-01
DAV:   8    -0.128707461937E+03    0.11815E-03   -0.24023E-04  1224   0.525E-02    0.158E-01
DAV:   9    -0.128708017028E+03   -0.55509E-03   -0.39719E-03  1824   0.172E-01    0.403E-01
DAV:  10    -0.128707402063E+03    0.61496E-03   -0.33984E-03  1568   0.159E-01    0.124E-01
DAV:  11    -0.128707463833E+03   -0.61770E-04   -0.91355E-05  1256   0.278E-02    0.163E-01
DAV:  12    -0.128707351625E+03    0.11221E-03   -0.43186E-04  1464   0.622E-02    0.281E-02
DAV:  13    -0.128707372380E+03   -0.20755E-04   -0.82169E-05  1048   0.271E-02    0.678E-02
DAV:  14    -0.128707357409E+03    0.14971E-04   -0.13885E-05   728   0.999E-03    0.337E-02
DAV:  15    -0.128707356605E+03    0.80332E-06   -0.47631E-06   728   0.754E-03
  14 F= -.12870736E+03 E0= -.12864076E+03  d E =-.752950E-02
 curvature:  -0.84 expect dE=-0.356E-01 dE for cont linesearch -0.152E-03
 trial: gam= 0.53123 g(F)=  0.424E-01 g(S)=  0.000E+00 ort = 0.540E-02 (trialstep = 0.218E+00)
 search vector abs. value=  0.935E-01
 bond charge predicted
       N       E                     dE             d eps       ncg     rms          rms(c)
DAV:   1    -0.128715414159E+03   -0.80568E-02   -0.12163E+00  1152   0.228E+00    0.204E-01
DAV:   2    -0.128721672776E+03   -0.62586E-02   -0.23469E-02  1264   0.540E-01    0.863E-01
DAV:   3    -0.128723735308E+03   -0.20625E-02   -0.44056E-02  1336   0.595E-01    0.146E+00
DAV:   4    -0.128762151026E+03   -0.38416E-01   -0.28556E-01  1792   0.130E+00    0.340E+00
DAV:   5    -0.128723885333E+03    0.38266E-01   -0.52790E-02  1536   0.669E-01    0.122E+00
DAV:   6    -0.128719097035E+03    0.47883E-02   -0.75200E-03  1256   0.226E-01    0.692E-01
DAV:   7    -0.128720667184E+03   -0.15701E-02   -0.72486E-03  1400   0.273E-01    0.109E+00
DAV:   8    -0.128721830214E+03   -0.11630E-02   -0.62654E-04  1360   0.126E-01    0.118E+00
DAV:   9    -0.128717032536E+03    0.47977E-02   -0.13571E-02  1640   0.301E-01    0.294E-01
DAV:  10    -0.128716670372E+03    0.36216E-03   -0.97747E-04  1320   0.138E-01    0.152E-01
DAV:  11    -0.128716644370E+03    0.26002E-04   -0.65996E-04  1320   0.780E-02    0.107E-01
DAV:  12    -0.128716792358E+03   -0.14799E-03   -0.14079E-03  1304   0.947E-02    0.239E-01
DAV:  13    -0.128716601039E+03    0.19132E-03   -0.35511E-04  1352   0.530E-02    0.886E-02
DAV:  14    -0.128716631284E+03   -0.30245E-04   -0.28229E-05  1224   0.170E-02    0.121E-01
DAV:  15    -0.128716603116E+03    0.28168E-04   -0.27700E-05   856   0.133E-02    0.818E-02
DAV:  16    -0.128716592349E+03    0.10766E-04   -0.13717E-05   824   0.102E-02    0.550E-02
DAV:  17    -0.128716617050E+03   -0.24701E-04   -0.25198E-05   824   0.153E-02    0.957E-02
DAV:  18    -0.128716601115E+03    0.15935E-04   -0.69525E-06   688   0.855E-03    0.733E-02
DAV:  19    -0.128716586689E+03    0.14426E-04   -0.25061E-05   720   0.121E-02    0.315E-02
DAV:  20    -0.128716586428E+03    0.26141E-06   -0.40674E-06   704   0.496E-03
  15 F= -.12871659E+03 E0= -.12864995E+03  d E =-.922982E-02
 ZBRENT: can't locate minimum, use default step
 trial-energy change:   -0.009230  1 .order   -0.008888   -0.009856   -0.007919
 step:   0.8709(harm=  1.1079)  dis= 0.02875  next Energy=  -128.732434 (dE=-0.251E-01)
 bond charge predicted
       N       E                     dE             d eps       ncg     rms          rms(c)
DAV:   1    -0.128719646151E+03   -0.30595E-02   -0.10947E+01  1152   0.684E+00    0.591E-01
DAV:   2    -0.128776129213E+03   -0.56483E-01   -0.23232E-01  1240   0.160E+00    0.276E+00
DAV:   3    -0.128757381342E+03    0.18748E-01   -0.22057E-01  1312   0.127E+00    0.243E+00
DAV:   4    -0.128984385213E+03   -0.22700E+00   -0.12886E+00  1720   0.295E+00    0.720E+00
DAV:   5    -0.128784493830E+03    0.19989E+00   -0.17714E-01  1448   0.147E+00    0.342E+00
DAV:   6    -0.128793378086E+03   -0.88843E-02   -0.88399E-03  1312   0.388E-01    0.381E+00
DAV:   7    -0.128757148035E+03    0.36230E-01   -0.17781E-02  1544   0.600E-01    0.266E+00
DAV:   8    -0.128735601831E+03    0.21546E-01   -0.77888E-02  1704   0.671E-01    0.864E-01
DAV:   9    -0.128765362539E+03   -0.29761E-01   -0.11105E-01  1712   0.104E+00    0.294E+00
DAV:  10    -0.128732817468E+03    0.32545E-01   -0.17291E-01  1736   0.103E+00    0.655E-01
DAV:  11    -0.128733291860E+03   -0.47439E-03   -0.40014E-03  1248   0.190E-01    0.748E-01
DAV:  12    -0.128731098840E+03    0.21930E-02   -0.22253E-02  1528   0.381E-01    0.535E-01
DAV:  13    -0.128731324257E+03   -0.22542E-03   -0.51972E-04  1264   0.878E-02    0.560E-01
DAV:  14    -0.128730268253E+03    0.10560E-02   -0.37006E-03  1432   0.149E-01    0.800E-02
DAV:  15    -0.128730332144E+03   -0.63891E-04   -0.19455E-04  1264   0.433E-02    0.119E-01
DAV:  16    -0.128730299415E+03    0.32729E-04   -0.15413E-04  1256   0.284E-02    0.121E-01
DAV:  17    -0.128730290561E+03    0.88543E-05   -0.10665E-04  1296   0.273E-02    0.134E-01
DAV:  18    -0.128730280179E+03    0.10382E-04   -0.27003E-05  1232   0.163E-02    0.114E-01
DAV:  19    -0.128730276198E+03    0.39809E-05   -0.13588E-05  1232   0.129E-02    0.112E-01
DAV:  20    -0.128730277624E+03   -0.14256E-05   -0.66805E-06  1136   0.921E-03    0.112E-01
DAV:  21    -0.128730264292E+03    0.13332E-04   -0.85017E-06   696   0.735E-03    0.896E-02
DAV:  22    -0.128730248126E+03    0.16166E-04   -0.29464E-05   800   0.134E-02    0.439E-02
DAV:  23    -0.128730246690E+03    0.14358E-05   -0.13107E-05   776   0.886E-03    0.171E-02
DAV:  24    -0.128730247792E+03   -0.11026E-05   -0.94606E-07   640   0.355E-03    0.212E-02
DAV:  25    -0.128730248041E+03   -0.24901E-06   -0.33780E-07   648   0.172E-03
  16 F= -.12873025E+03 E0= -.12866340E+03  d E =-.228914E-01
 curvature:  -1.06 expect dE=-0.110E-01 dE for cont linesearch -0.260E-02
 ZBRENT: increasing intervall
 opt :   2.1772  next Energy=  -128.722263 (dE=-0.149E-01)
 bond charge predicted
       N       E                     dE             d eps       ncg     rms          rms(c)
DAV:   1    -0.128697308705E+03    0.32939E-01   -0.43909E+01  1152   0.137E+01    0.115E+00
DAV:   2    -0.128849349781E+03   -0.15204E+00   -0.74575E-01  1248   0.285E+00    0.342E+00
DAV:   3    -0.129192492944E+03   -0.34314E+00   -0.19235E+00  1392   0.410E+00    0.939E+00
DAV:   4    -0.129785295745E+03   -0.59280E+00   -0.21614E+00  1688   0.721E+00    0.137E+01
DAV:   5    -0.128959198164E+03    0.82610E+00   -0.24231E-01  1440   0.287E+00    0.656E+00
DAV:   6    -0.128927663146E+03    0.31535E-01   -0.19888E-02  1296   0.493E-01    0.611E+00
DAV:   7    -0.128829512187E+03    0.98151E-01   -0.53699E-02  1496   0.724E-01    0.453E+00
DAV:   8    -0.128898675664E+03   -0.69163E-01   -0.39848E-02  1312   0.872E-01    0.577E+00
DAV:   9    -0.128931733493E+03   -0.33058E-01   -0.22591E-02  1344   0.564E-01    0.622E+00
DAV:  10    -0.128749032414E+03    0.18270E+00   -0.51038E-01  1680   0.215E+00    0.140E+00
DAV:  11    -0.128754285811E+03   -0.52534E-02   -0.30953E-02  1280   0.735E-01    0.147E+00
DAV:  12    -0.128752169128E+03    0.21167E-02   -0.18458E-02  1264   0.391E-01    0.125E+00
DAV:  13    -0.128749003872E+03    0.31653E-02   -0.26157E-03  1272   0.187E-01    0.996E-01
DAV:  14    -0.128743700851E+03    0.53030E-02   -0.32508E-02  1680   0.568E-01    0.109E+00
DAV:  15    -0.128742728794E+03    0.97206E-03   -0.30613E-03  1256   0.154E-01    0.816E-01
DAV:  16    -0.128740298891E+03    0.24299E-02   -0.13060E-02  1312   0.283E-01    0.474E-01
DAV:  17    -0.128740244642E+03    0.54249E-04   -0.29822E-03  1312   0.134E-01    0.455E-01
DAV:  18    -0.128740245777E+03   -0.11347E-05   -0.44485E-04  1288   0.675E-02    0.463E-01
DAV:  19    -0.128740097670E+03    0.14811E-03   -0.95520E-04  1408   0.104E-01    0.295E-01
DAV:  20    -0.128739835542E+03    0.26213E-03   -0.28620E-04  1240   0.692E-02    0.256E-01
DAV:  21    -0.128739813140E+03    0.22402E-04   -0.11788E-04  1344   0.396E-02    0.264E-01
DAV:  22    -0.128739753077E+03    0.60063E-04   -0.57299E-05  1224   0.195E-02    0.235E-01
DAV:  23    -0.128739604449E+03    0.14863E-03   -0.20574E-04  1256   0.371E-02    0.195E-01
DAV:  24    -0.128739517172E+03    0.87276E-04   -0.26597E-05  1256   0.187E-02    0.162E-01
DAV:  25    -0.128739528838E+03   -0.11666E-04   -0.72327E-05  1120   0.180E-02    0.161E-01
DAV:  26    -0.128739532276E+03   -0.34386E-05   -0.69794E-06   832   0.735E-03    0.152E-01
DAV:  27    -0.128739475310E+03    0.56966E-04   -0.15501E-04  1056   0.278E-02    0.138E-01
DAV:  28    -0.128739435903E+03    0.39408E-04   -0.24706E-05  1264   0.173E-02    0.132E-01
DAV:  29    -0.128739398853E+03    0.37049E-04   -0.11642E-05  1224   0.133E-02    0.104E-01
DAV:  30    -0.128739376085E+03    0.22768E-04   -0.11848E-05  1160   0.108E-02    0.758E-02
DAV:  31    -0.128739367552E+03    0.85331E-05   -0.29441E-06   712   0.753E-03    0.690E-02
DAV:  32    -0.128739360299E+03    0.72529E-05   -0.22977E-06   752   0.629E-03    0.633E-02
DAV:  33    -0.128739351788E+03    0.85112E-05   -0.21897E-06   744   0.704E-03    0.527E-02
DAV:  34    -0.128739343324E+03    0.84634E-05   -0.62697E-06  1000   0.799E-03    0.327E-02
DAV:  35    -0.128739340721E+03    0.26036E-05   -0.13345E-06   664   0.434E-03    0.243E-02
DAV:  36    -0.128739338293E+03    0.24276E-05   -0.10951E-06   696   0.472E-03    0.161E-02
DAV:  37    -0.128739336668E+03    0.16253E-05   -0.11536E-06   632   0.502E-03    0.902E-03
DAV:  38    -0.128739336288E+03    0.38015E-06   -0.45816E-07   600   0.232E-03
  17 F= -.12873934E+03 E0= -.12867182E+03  d E =-.319797E-01
 curvature:   3.26 expect dE= 0.411E-01 dE for cont linesearch  0.747E-03
 ZBRENT: bracketing found
 ZBRENT: interpolating
 opt :   1.8712  next Energy=  -128.740044 (dE=-0.327E-01)
 bond charge predicted
       N       E                     dE             d eps       ncg     rms          rms(c)
DAV:   1    -0.128737263124E+03    0.20735E-02   -0.24058E+00  1152   0.319E+00    0.257E-01
DAV:   2    -0.128764775366E+03   -0.27512E-01   -0.10238E-01  1256   0.957E-01    0.250E+00
DAV:   3    -0.128753290915E+03    0.11484E-01   -0.12768E-02  1192   0.303E-01    0.157E+00
DAV:   4    -0.128766046368E+03   -0.12755E-01   -0.74866E-02  1504   0.943E-01    0.243E+00
DAV:   5    -0.128744877239E+03    0.21169E-01   -0.43975E-02  1376   0.588E-01    0.862E-01
DAV:   6    -0.128743418976E+03    0.14583E-02   -0.57673E-03  1248   0.202E-01    0.717E-01
DAV:   7    -0.128745492527E+03   -0.20736E-02   -0.36222E-02  1608   0.503E-01    0.133E+00
DAV:   8    -0.128751690271E+03   -0.61977E-02   -0.29591E-03  1344   0.265E-01    0.171E+00
DAV:   9    -0.128740518977E+03    0.11171E-01   -0.19352E-02  1600   0.389E-01    0.486E-01
DAV:  10    -0.128739966904E+03    0.55207E-03   -0.10383E-03  1240   0.912E-02    0.377E-01
DAV:  11    -0.128739729737E+03    0.23717E-03   -0.26502E-03  1768   0.138E-01    0.173E-01
DAV:  12    -0.128739845294E+03   -0.11556E-03   -0.95009E-04  1320   0.862E-02    0.251E-01
DAV:  13    -0.128739730944E+03    0.11435E-03   -0.11477E-04  1352   0.454E-02    0.215E-01
DAV:  14    -0.128739687694E+03    0.43251E-04   -0.53297E-05  1304   0.278E-02    0.184E-01
DAV:  15    -0.128739721617E+03   -0.33924E-04   -0.28055E-05  1232   0.175E-02    0.208E-01
DAV:  16    -0.128739728585E+03   -0.69674E-05   -0.15923E-05  1192   0.113E-02    0.215E-01
DAV:  17    -0.128739671994E+03    0.56591E-04   -0.31714E-05  1152   0.178E-02    0.173E-01
DAV:  18    -0.128739676977E+03   -0.49836E-05   -0.31045E-06   784   0.560E-03    0.171E-01
DAV:  19    -0.128739654092E+03    0.22885E-04   -0.10442E-05   688   0.733E-03    0.144E-01
DAV:  20    -0.128739626427E+03    0.27665E-04   -0.28310E-05   680   0.126E-02    0.100E-01
DAV:  21    -0.128739618824E+03    0.76033E-05   -0.13160E-05   760   0.888E-03    0.738E-02
DAV:  22    -0.128739620536E+03   -0.17117E-05   -0.56849E-07   640   0.224E-03    0.715E-02
DAV:  23    -0.128739621043E+03   -0.50693E-06   -0.64663E-08   600   0.613E-04
  18 F= -.12873962E+03 E0= -.12867217E+03  d E =-.322644E-01
 curvature:  -3.09 expect dE=-0.244E-01 dE for cont linesearch -0.391E-03
 ZBRENT: interpolating
 opt :   2.0017  next Energy=  -128.739845 (dE=-0.325E-01)
 bond charge predicted
       N       E                     dE             d eps       ncg     rms          rms(c)
DAV:   1    -0.128739413872E+03    0.20666E-03   -0.43740E-01  1152   0.136E+00    0.114E-01
DAV:   2    -0.128782876609E+03   -0.43463E-01   -0.17152E-01  1496   0.101E+00    0.317E+00
DAV:   3    -0.128742392307E+03    0.40484E-01   -0.11809E-01  1392   0.837E-01    0.506E-01
DAV:   4    -0.128742457162E+03   -0.64855E-04   -0.70766E-03  1344   0.342E-01    0.838E-01
DAV:   5    -0.128740595246E+03    0.18619E-02   -0.18683E-03  1312   0.174E-01    0.416E-01
DAV:   6    -0.128740181548E+03    0.41370E-03   -0.14127E-03  1288   0.913E-02    0.247E-01
DAV:   7    -0.128740831602E+03   -0.65005E-03   -0.48250E-03  1544   0.202E-01    0.510E-01
DAV:   8    -0.128741044071E+03   -0.21247E-03   -0.38659E-04  1304   0.899E-02    0.551E-01
DAV:   9    -0.128739869845E+03    0.11742E-02   -0.52045E-03  1672   0.188E-01    0.151E-01
DAV:  10    -0.128740307378E+03   -0.43753E-03   -0.69847E-04  1392   0.877E-02    0.304E-01
DAV:  11    -0.128739896259E+03    0.41112E-03   -0.54355E-04  1368   0.828E-02    0.117E-01
DAV:  12    -0.128739921477E+03   -0.25218E-04   -0.10955E-03  1584   0.916E-02    0.162E-01
DAV:  13    -0.128739835085E+03    0.86392E-04   -0.17058E-04  1216   0.333E-02    0.537E-02
DAV:  14    -0.128739825523E+03    0.95612E-05   -0.39312E-05   992   0.183E-02    0.150E-02
DAV:  15    -0.128739827279E+03   -0.17555E-05   -0.42893E-06   792   0.674E-03    0.196E-02
DAV:  16    -0.128739830164E+03   -0.28849E-05   -0.44424E-06   672   0.646E-03    0.341E-02
DAV:  17    -0.128739834359E+03   -0.41953E-05   -0.57540E-06   648   0.634E-03    0.495E-02
DAV:  18    -0.128739833295E+03    0.10645E-05   -0.19349E-06   680   0.627E-03    0.482E-02
DAV:  19    -0.128739826766E+03    0.65289E-05   -0.82193E-06   696   0.730E-03    0.230E-02
DAV:  20    -0.128739826416E+03    0.35000E-06   -0.84434E-07   648   0.250E-03
  19 F= -.12873983E+03 E0= -.12867242E+03  d E =-.324698E-01
 curvature:  -1.77 expect dE=-0.163E-01 dE for cont linesearch -0.162E-06
 trial: gam= 0.20159 g(F)=  0.922E-02 g(S)=  0.000E+00 ort = 0.925E-04 (trialstep = 0.575E+00)
 search vector abs. value=  0.131E-01
 bond charge predicted
       N       E                     dE             d eps       ncg     rms          rms(c)
DAV:   1    -0.128743517288E+03   -0.36905E-02   -0.11763E+00  1152   0.227E+00    0.144E-01
DAV:   2    -0.128748581929E+03   -0.50646E-02   -0.22727E-02  1240   0.495E-01    0.752E-01
DAV:   3    -0.128746855744E+03    0.17262E-02   -0.16451E-02  1312   0.360E-01    0.784E-01
DAV:   4    -0.128760153065E+03   -0.13297E-01   -0.95035E-02  1760   0.720E-01    0.200E+00
DAV:   5    -0.128746224360E+03    0.13929E-01   -0.30912E-02  1672   0.451E-01    0.504E-01
DAV:   6    -0.128745127698E+03    0.10967E-02   -0.35288E-03  1368   0.159E-01    0.293E-01
DAV:   7    -0.128745029148E+03    0.98549E-04   -0.15534E-03  1376   0.114E-01    0.323E-01
DAV:   8    -0.128751345154E+03   -0.63160E-02   -0.13466E-02  1896   0.337E-01    0.127E+00
DAV:   9    -0.128745384129E+03    0.59610E-02   -0.10679E-02  1688   0.305E-01    0.380E-01
DAV:  10    -0.128744667228E+03    0.71690E-03   -0.33936E-03  1416   0.150E-01    0.836E-02
DAV:  11    -0.128744727314E+03   -0.60086E-04   -0.15672E-04  1232   0.347E-02    0.600E-02
DAV:  12    -0.128744775477E+03   -0.48163E-04   -0.29676E-04  1152   0.417E-02    0.132E-01
DAV:  13    -0.128744748669E+03    0.26808E-04   -0.16591E-05  1240   0.150E-02    0.115E-01
DAV:  14    -0.128744708353E+03    0.40316E-04   -0.75857E-05  1016   0.251E-02    0.474E-02
DAV:  15    -0.128744710741E+03   -0.23881E-05   -0.48061E-05  1176   0.173E-02    0.289E-02
DAV:  16    -0.128744711972E+03   -0.12315E-05   -0.36725E-06   816   0.610E-03    0.242E-02
DAV:  17    -0.128744711593E+03    0.37922E-06   -0.17818E-05   680   0.106E-02    0.289E-02
DAV:  18    -0.128744712796E+03   -0.12032E-05   -0.32495E-06   696   0.473E-03    0.368E-02
DAV:  19    -0.128744711224E+03    0.15722E-05   -0.75043E-07   600   0.303E-03    0.292E-02
DAV:  20    -0.128744710684E+03    0.54017E-06   -0.52901E-07   624   0.218E-03
  20 F= -.12874471E+03 E0= -.12867741E+03  d E =-.488427E-02
 trial-energy change:   -0.004884  1 .order   -0.004827   -0.005306   -0.004349
 step:   1.8067(harm=  3.1880)  dis= 0.01883  next Energy=  -128.749935 (dE=-0.101E-01)
 bond charge predicted
       N       E                     dE             d eps       ncg     rms          rms(c)
DAV:   1    -0.128745455147E+03   -0.74392E-03   -0.54109E+00  1152   0.487E+00    0.296E-01
DAV:   2    -0.128785552587E+03   -0.40097E-01   -0.15864E-01  1232   0.125E+00    0.252E+00
DAV:   3    -0.128765444249E+03    0.20108E-01   -0.30841E-02  1208   0.469E-01    0.131E+00
DAV:   4    -0.128796972601E+03   -0.31528E-01   -0.12064E-01  1608   0.100E+00    0.335E+00
DAV:   5    -0.128761847879E+03    0.35125E-01   -0.17969E-01  1704   0.116E+00    0.133E+00
DAV:   6    -0.128756406533E+03    0.54413E-02   -0.94145E-03  1224   0.236E-01    0.797E-01
DAV:   7    -0.128753643659E+03    0.27629E-02   -0.79016E-03  1640   0.331E-01    0.814E-01
DAV:   8    -0.128754555205E+03   -0.91155E-03   -0.25588E-02  1472   0.377E-01    0.102E+00
DAV:   9    -0.128752079075E+03    0.24761E-02   -0.58824E-03  1392   0.236E-01    0.488E-01
DAV:  10    -0.128754866719E+03   -0.27876E-02   -0.91609E-03  1448   0.306E-01    0.105E+00
DAV:  11    -0.128751508435E+03    0.33583E-02   -0.21591E-02  1544   0.358E-01    0.348E-01
DAV:  12    -0.128751179009E+03    0.32943E-03   -0.10971E-03  1240   0.854E-02    0.185E-01
DAV:  13    -0.128751206177E+03   -0.27168E-04   -0.13181E-03  1528   0.102E-01    0.260E-01
DAV:  14    -0.128751200676E+03    0.55009E-05   -0.91099E-05  1208   0.306E-02    0.250E-01
DAV:  15    -0.128750984541E+03    0.21613E-03   -0.44483E-04  1368   0.506E-02    0.943E-02
DAV:  16    -0.128750982976E+03    0.15647E-05   -0.44713E-05  1256   0.187E-02    0.718E-02
DAV:  17    -0.128750985281E+03   -0.23047E-05   -0.91096E-06  1104   0.879E-03    0.654E-02
DAV:  18    -0.128750981685E+03    0.35957E-05   -0.94468E-06  1040   0.108E-02    0.481E-02
DAV:  19    -0.128750986111E+03   -0.44260E-05   -0.39426E-06   648   0.585E-03    0.551E-02
DAV:  20    -0.128750985553E+03    0.55815E-06   -0.20571E-06   680   0.543E-03
  21 F= -.12875099E+03 E0= -.12868379E+03  d E =-.111591E-01
 curvature:  -1.62 expect dE=-0.102E-01 dE for cont linesearch -0.111E-02
 ZBRENT: increasing intervall
 opt :   4.2709  next Energy=  -128.747077 (dE=-0.725E-02)
 bond charge predicted
       N       E                     dE             d eps       ncg     rms          rms(c)
DAV:   1    -0.128725370215E+03    0.25616E-01   -0.21636E+01  1152   0.975E+00    0.559E-01
DAV:   2    -0.129024916681E+03   -0.29955E+00   -0.10533E+00  1256   0.313E+00    0.698E+00
DAV:   3    -0.128797078687E+03    0.22784E+00   -0.37118E-01  1240   0.189E+00    0.244E+00
DAV:   4    -0.128816611076E+03   -0.19532E-01   -0.17961E-01  1352   0.134E+00    0.385E+00
DAV:   5    -0.128778615553E+03    0.37996E-01   -0.23255E-02  1280   0.478E-01    0.242E+00
DAV:   6    -0.128761315656E+03    0.17300E-01   -0.13718E-01  1680   0.913E-01    0.176E+00
DAV:   7    -0.128758016891E+03    0.32988E-02   -0.59045E-03  1264   0.355E-01    0.116E+00
DAV:   8    -0.128760087526E+03   -0.20706E-02   -0.87681E-02  1632   0.848E-01    0.180E+00
DAV:   9    -0.128781587525E+03   -0.21500E-01   -0.19505E-02  1392   0.505E-01    0.261E+00
DAV:  10    -0.128767485223E+03    0.14102E-01   -0.16762E-01  1664   0.121E+00    0.170E+00
DAV:  11    -0.128751280353E+03    0.16205E-01   -0.67386E-02  1344   0.753E-01    0.746E-01
DAV:  12    -0.128752381886E+03   -0.11015E-02   -0.32048E-03  1280   0.161E-01    0.925E-01
DAV:  13    -0.128756772146E+03   -0.43903E-02   -0.33225E-03  1304   0.162E-01    0.133E+00
DAV:  14    -0.128749813321E+03    0.69588E-02   -0.85960E-03  1416   0.264E-01    0.553E-01
DAV:  15    -0.128748096904E+03    0.17164E-02   -0.76448E-03  1584   0.251E-01    0.332E-01
DAV:  16    -0.128748166149E+03   -0.69245E-04   -0.31385E-04  1176   0.504E-02    0.355E-01
DAV:  17    -0.128748011950E+03    0.15420E-03   -0.13592E-04  1376   0.252E-02    0.287E-01
DAV:  18    -0.128747932639E+03    0.79311E-04   -0.23318E-04  1208   0.355E-02    0.219E-01
DAV:  19    -0.128747922096E+03    0.10543E-04   -0.32681E-05  1248   0.160E-02    0.199E-01
DAV:  20    -0.128747910545E+03    0.11551E-04   -0.24170E-05  1232   0.165E-02    0.187E-01
DAV:  21    -0.128747885243E+03    0.25302E-04   -0.19991E-05  1176   0.120E-02    0.159E-01
DAV:  22    -0.128747868866E+03    0.16377E-04   -0.17012E-05   984   0.994E-03    0.135E-01
DAV:  23    -0.128747846032E+03    0.22834E-04   -0.82370E-06   992   0.122E-02    0.115E-01
DAV:  24    -0.128747825649E+03    0.20383E-04   -0.17421E-05  1232   0.151E-02    0.912E-02
DAV:  25    -0.128747819419E+03    0.62297E-05   -0.37828E-06   792   0.590E-03    0.786E-02
DAV:  26    -0.128747815571E+03    0.38477E-05   -0.42324E-06   936   0.597E-03    0.626E-02
DAV:  27    -0.128747810604E+03    0.49675E-05   -0.10117E-05  1128   0.117E-02    0.394E-02
DAV:  28    -0.128747808517E+03    0.20863E-05   -0.95562E-06  1224   0.125E-02    0.194E-02
DAV:  29    -0.128747808682E+03   -0.16444E-06   -0.18368E-06   656   0.388E-03
  22 F= -.12874781E+03 E0= -.12868112E+03  d E =-.798227E-02
 curvature:   5.70 expect dE= 0.155E+00 dE for cont linesearch  0.161E-01
 ZBRENT: bracketing found
 ZBRENT: interpolating
 opt :   2.6197  next Energy=  -128.752202 (dE=-0.124E-01)
 bond charge predicted
       N       E                     dE             d eps       ncg     rms          rms(c)
DAV:   1    -0.128741923575E+03    0.58849E-02   -0.97072E+00  1152   0.651E+00    0.378E-01
DAV:   2    -0.128973852988E+03   -0.23193E+00   -0.91099E-01  1264   0.248E+00    0.727E+00
DAV:   3    -0.128799828334E+03    0.17402E+00   -0.17953E-01  1224   0.135E+00    0.289E+00
DAV:   4    -0.128793781485E+03    0.60468E-02   -0.70066E-02  1344   0.100E+00    0.303E+00
DAV:   5    -0.128758091526E+03    0.35690E-01   -0.10351E-01  1376   0.897E-01    0.103E+00
DAV:   6    -0.128766343512E+03   -0.82520E-02   -0.52297E-02  1264   0.583E-01    0.164E+00
DAV:   7    -0.128759028246E+03    0.73153E-02   -0.77998E-03  1296   0.332E-01    0.114E+00
DAV:   8    -0.128758775412E+03    0.25283E-03   -0.63433E-02  1576   0.668E-01    0.129E+00
DAV:   9    -0.128781564265E+03   -0.22789E-01   -0.45249E-02  1728   0.579E-01    0.281E+00
DAV:  10    -0.128760868152E+03    0.20696E-01   -0.32638E-02  1288   0.413E-01    0.125E+00
DAV:  11    -0.128752328050E+03    0.85401E-02   -0.19422E-02  1560   0.435E-01    0.238E-01
DAV:  12    -0.128752710913E+03   -0.38286E-03   -0.35115E-03  1248   0.182E-01    0.392E-01
DAV:  13    -0.128752229330E+03    0.48158E-03   -0.10916E-03  1320   0.118E-01    0.137E-01
DAV:  14    -0.128752277905E+03   -0.48575E-04   -0.33066E-04  1304   0.625E-02    0.159E-01
DAV:  15    -0.128752299734E+03   -0.21829E-04   -0.12047E-04  1264   0.275E-02    0.169E-01
DAV:  16    -0.128752233842E+03    0.65892E-04   -0.18402E-04  1336   0.512E-02    0.153E-01
DAV:  17    -0.128752228399E+03    0.54429E-05   -0.40380E-05  1272   0.177E-02    0.149E-01
DAV:  18    -0.128752219280E+03    0.91195E-05   -0.15671E-05  1208   0.132E-02    0.143E-01
DAV:  19    -0.128752219296E+03   -0.16182E-07   -0.47049E-06   712   0.728E-03
  23 F= -.12875222E+03 E0= -.12868511E+03  d E =-.123929E-01
 curvature:  -0.43 expect dE=-0.468E-02 dE for cont linesearch -0.147E-04
 trial: gam= 1.18019 g(F)=  0.109E-01 g(S)=  0.000E+00 ort = 0.669E-03 (trialstep = 0.419E+00)
 search vector abs. value=  0.306E-01
 bond charge predicted
       N       E                     dE             d eps       ncg     rms          rms(c)
DAV:   1    -0.128755704002E+03   -0.34847E-02   -0.14329E+00  1152   0.250E+00    0.126E-01
DAV:   2    -0.128765508846E+03   -0.98048E-02   -0.44595E-02  1224   0.591E-01    0.146E+00
DAV:   3    -0.128764177491E+03    0.13314E-02   -0.17867E-03  1224   0.122E-01    0.128E+00
DAV:   4    -0.128759020366E+03    0.51571E-02   -0.57202E-03  1768   0.199E-01    0.641E-01
DAV:   5    -0.128759681502E+03   -0.66114E-03   -0.16812E-02  1832   0.364E-01    0.797E-01
DAV:   6    -0.128757919370E+03    0.17621E-02   -0.73688E-03  1384   0.215E-01    0.410E-01
DAV:   7    -0.128758383874E+03   -0.46450E-03   -0.69871E-04  1384   0.101E-01    0.571E-01
DAV:   8    -0.128759824672E+03   -0.14408E-02   -0.19775E-03  1784   0.147E-01    0.806E-01
DAV:   9    -0.128757398878E+03    0.24258E-02   -0.10239E-02  1512   0.259E-01    0.224E-01
DAV:  10    -0.128757805066E+03   -0.40619E-03   -0.35931E-03  1424   0.189E-01    0.379E-01
DAV:  11    -0.128757231728E+03    0.57334E-03   -0.10354E-03  1328   0.102E-01    0.127E-01
DAV:  12    -0.128757184019E+03    0.47709E-04   -0.27888E-04  1368   0.503E-02    0.688E-02
DAV:  13    -0.128757189045E+03   -0.50261E-05   -0.10553E-04  1344   0.366E-02    0.829E-02
DAV:  14    -0.128757157170E+03    0.31874E-04   -0.10391E-04  1272   0.269E-02    0.442E-02
DAV:  15    -0.128757152273E+03    0.48974E-05   -0.12441E-05  1224   0.909E-03    0.482E-02
DAV:  16    -0.128757151007E+03    0.12656E-05   -0.36558E-06   696   0.524E-03    0.495E-02
DAV:  17    -0.128757150727E+03    0.28050E-06   -0.28719E-06   672   0.512E-03
  24 F= -.12875715E+03 E0= -.12869014E+03  d E =-.493143E-02
 ZBRENT: can't locate minimum, use default step
 trial-energy change:   -0.004931  1 .order   -0.004689   -0.004890   -0.004488
 step:   1.6758(harm=  5.0863)  dis= 0.02627  next Energy=  -128.781905 (dE=-0.297E-01)
 bond charge predicted
       N       E                     dE             d eps       ncg     rms          rms(c)
DAV:   1    -0.128747884819E+03    0.92662E-02   -0.12901E+01  1152   0.749E+00    0.441E-01
DAV:   2    -0.128843960747E+03   -0.96076E-01   -0.40230E-01  1264   0.171E+00    0.478E+00
DAV:   3    -0.128943428778E+03   -0.99468E-01   -0.15603E+00  1520   0.321E+00    0.578E+00
DAV:   4    -0.128792280085E+03    0.15115E+00   -0.45953E-01  1568   0.204E+00    0.223E+00
DAV:   5    -0.128776116660E+03    0.16163E-01   -0.10021E-02  1288   0.336E-01    0.158E+00
DAV:   6    -0.128779174694E+03   -0.30580E-02   -0.23747E-02  1536   0.537E-01    0.221E+00
DAV:   7    -0.128796988054E+03   -0.17813E-01   -0.63773E-03  1312   0.398E-01    0.284E+00
DAV:   8    -0.128778995941E+03    0.17992E-01   -0.78724E-03  1304   0.332E-01    0.199E+00
DAV:   9    -0.128767565541E+03    0.11430E-01   -0.64923E-02  1840   0.631E-01    0.116E+00
DAV:  10    -0.128764839264E+03    0.27263E-02   -0.43231E-02  1528   0.616E-01    0.884E-01
DAV:  11    -0.128762400369E+03    0.24389E-02   -0.55257E-03  1288   0.202E-01    0.498E-01
DAV:  12    -0.128761547711E+03    0.85266E-03   -0.51037E-03  1528   0.205E-01    0.350E-01
DAV:  13    -0.128761711014E+03   -0.16330E-03   -0.12382E-03  1232   0.102E-01    0.395E-01
DAV:  14    -0.128761315478E+03    0.39554E-03   -0.57070E-04  1296   0.753E-02    0.237E-01
DAV:  15    -0.128761155052E+03    0.16043E-03   -0.26696E-04  1280   0.406E-02    0.119E-01
DAV:  16    -0.128761124966E+03    0.30086E-04   -0.10752E-04  1264   0.269E-02    0.669E-02
DAV:  17    -0.128761135607E+03   -0.10641E-04   -0.25184E-05  1224   0.141E-02    0.614E-02
DAV:  18    -0.128761144655E+03   -0.90474E-05   -0.20617E-05  1184   0.113E-02    0.631E-02
DAV:  19    -0.128761151108E+03   -0.64533E-05   -0.80608E-06  1216   0.854E-03    0.624E-02
DAV:  20    -0.128761143346E+03    0.77616E-05   -0.16789E-05   680   0.940E-03    0.411E-02
DAV:  21    -0.128761140538E+03    0.28082E-05   -0.98382E-06   880   0.109E-02    0.316E-02
DAV:  22    -0.128761139187E+03    0.13509E-05   -0.35815E-06   752   0.832E-03    0.313E-02
DAV:  23    -0.128761137758E+03    0.14290E-05   -0.14378E-06   688   0.454E-03    0.292E-02
DAV:  24    -0.128761136200E+03    0.15579E-05   -0.86103E-07   672   0.381E-03    0.239E-02
DAV:  25    -0.128761134783E+03    0.14177E-05   -0.12671E-06   720   0.449E-03    0.166E-02
DAV:  26    -0.128761134265E+03    0.51735E-06   -0.10168E-06   664   0.360E-03
  25 F= -.12876113E+03 E0= -.12869417E+03  d E =-.891497E-02
 curvature:  -3.11 expect dE=-0.346E-01 dE for cont linesearch -0.195E-02
 ZBRENT: interpolating
 opt :   1.3108  next Energy=  -128.761934 (dE=-0.971E-02)
 bond charge predicted
       N       E                     dE             d eps       ncg     rms          rms(c)
DAV:   1    -0.128761232698E+03   -0.97915E-04   -0.10867E+00  1152   0.217E+00    0.118E-01
DAV:   2    -0.128764316703E+03   -0.30840E-02   -0.17655E-02  1224   0.390E-01    0.655E-01
DAV:   3    -0.128774415998E+03   -0.10099E-01   -0.62126E-02  1608   0.638E-01    0.185E+00
DAV:   4    -0.128764933656E+03    0.94823E-02   -0.28504E-02  1400   0.388E-01    0.739E-01
DAV:   5    -0.128763223494E+03    0.17102E-02   -0.95627E-04  1320   0.148E-01    0.444E-01
DAV:   6    -0.128762812073E+03    0.41142E-03   -0.45625E-04  1264   0.607E-02    0.321E-01
DAV:   7    -0.128765128522E+03   -0.23164E-02   -0.65792E-03  1688   0.222E-01    0.856E-01
[...]
DAV:  14    -0.128768467928E+03    0.10343E-04   -0.23935E-05   776   0.126E-02    0.376E-02
DAV:  15    -0.128768466997E+03    0.93161E-06   -0.22979E-05   744   0.130E-02    0.455E-02
DAV:  16    -0.128768467044E+03   -0.47206E-07   -0.22593E-06   680   0.407E-03
  31 F= -.12876847E+03 E0= -.12870155E+03  d E =-.154702E-02
 trial-energy change:   -0.001547  1 .order   -0.001368   -0.001774   -0.000963
 step:   0.9343(harm=  1.4450)  dis= 0.00287  next Energy=  -128.768679 (dE=-0.176E-02)
 bond charge predicted
       N       E                     dE             d eps       ncg     rms          rms(c)
DAV:   1    -0.128768779387E+03   -0.31239E-03   -0.56413E-02  1152   0.502E-01    0.577E-02
DAV:   2    -0.128774046351E+03   -0.52670E-02   -0.21847E-02  1608   0.330E-01    0.119E+00
DAV:   3    -0.128772654771E+03    0.13916E-02   -0.61380E-02  1672   0.567E-01    0.103E+00
DAV:   4    -0.128769935627E+03    0.27191E-02   -0.52367E-03  1472   0.195E-01    0.517E-01
DAV:   5    -0.128768869474E+03    0.10662E-02   -0.21449E-03  1416   0.136E-01    0.149E-01
DAV:   6    -0.128768914781E+03   -0.45307E-04   -0.50630E-04  1312   0.743E-02    0.131E-01
DAV:   7    -0.128769037923E+03   -0.12314E-03   -0.10079E-03  1376   0.986E-02    0.222E-01
DAV:   8    -0.128769178442E+03   -0.14052E-03   -0.22568E-04  1432   0.457E-02    0.301E-01
DAV:   9    -0.128768904450E+03    0.27399E-03   -0.38995E-04  1368   0.574E-02    0.136E-01
DAV:  10    -0.128768923393E+03   -0.18942E-04   -0.35714E-05  1336   0.312E-02    0.160E-01
DAV:  11    -0.128768846276E+03    0.77116E-04   -0.16027E-04  1160   0.292E-02    0.496E-02
DAV:  12    -0.128768845960E+03    0.31642E-06   -0.63103E-06   824   0.780E-03
  32 F= -.12876885E+03 E0= -.12870199E+03  d E =-.192594E-02
 curvature:  -0.44 expect dE=-0.409E-03 dE for cont linesearch -0.147E-03
 ZBRENT: increasing intervall
 opt :   1.4814  next Energy=  -128.769113 (dE=-0.219E-02)
 bond charge predicted
       N       E                     dE             d eps       ncg     rms          rms(c)
DAV:   1    -0.128768925977E+03   -0.79701E-04   -0.22547E-01  1152   0.100E+00    0.710E-02
DAV:   2    -0.128774284322E+03   -0.53583E-02   -0.24000E-02  1320   0.350E-01    0.119E+00
DAV:   3    -0.128773991047E+03    0.29328E-03   -0.68460E-02  1512   0.603E-01    0.115E+00
DAV:   4    -0.128770384404E+03    0.36066E-02   -0.84102E-03  1400   0.248E-01    0.533E-01
DAV:   5    -0.128769340046E+03    0.10444E-02   -0.53211E-03  1448   0.210E-01    0.205E-01
DAV:   6    -0.128769288292E+03    0.51754E-04   -0.96718E-04  1288   0.887E-02    0.163E-01
DAV:   7    -0.128769798832E+03   -0.51054E-03   -0.15103E-03  1672   0.115E-01    0.411E-01
DAV:   8    -0.128769417153E+03    0.38168E-03   -0.26845E-04  1328   0.543E-02    0.267E-01
DAV:   9    -0.128769270812E+03    0.14634E-03   -0.10653E-03  1736   0.909E-02    0.125E-01
DAV:  10    -0.128769172825E+03    0.97987E-04   -0.10924E-04  1368   0.565E-02    0.321E-02
DAV:  11    -0.128769200031E+03   -0.27206E-04   -0.56255E-05  1264   0.233E-02    0.834E-02
DAV:  12    -0.128769173414E+03    0.26617E-04   -0.74894E-05   944   0.238E-02    0.111E-02
DAV:  13    -0.128769176584E+03   -0.31703E-05   -0.54979E-06   680   0.861E-03    0.289E-02
DAV:  14    -0.128769175567E+03    0.10170E-05   -0.29844E-06   680   0.466E-03    0.218E-02
DAV:  15    -0.128769174405E+03    0.11627E-05   -0.13966E-06   656   0.478E-03    0.164E-02
DAV:  16    -0.128769174402E+03    0.24447E-08   -0.61404E-07   624   0.266E-03
  33 F= -.12876917E+03 E0= -.12870247E+03  d E =-.225438E-02
 curvature:  -0.80 expect dE=-0.889E-03 dE for cont linesearch -0.297E-07
 trial: gam= 0.37675 g(F)=  0.111E-02 g(S)=  0.000E+00 ort = 0.103E-04 (trialstep = 0.825E+00)
 search vector abs. value=  0.152E-02
 bond charge predicted
       N       E                     dE             d eps       ncg     rms          rms(c)
DAV:   1    -0.128769616447E+03   -0.44204E-03   -0.27754E-01  1152   0.112E+00    0.739E-02
DAV:   2    -0.128772722854E+03   -0.31064E-02   -0.15184E-02  1256   0.287E-01    0.891E-01
DAV:   3    -0.128775155800E+03   -0.24329E-02   -0.54718E-02  1520   0.545E-01    0.122E+00
DAV:   4    -0.128770620913E+03    0.45349E-02   -0.93155E-03  1392   0.246E-01    0.410E-01
DAV:   5    -0.128770063592E+03    0.55732E-03   -0.17424E-03  1384   0.118E-01    0.243E-01
DAV:   6    -0.128770000345E+03    0.63247E-04   -0.57641E-04  1288   0.754E-02    0.967E-02
DAV:   7    -0.128770155187E+03   -0.15484E-03   -0.12772E-03  1368   0.102E-01    0.273E-01
DAV:   8    -0.128771036640E+03   -0.88145E-03   -0.13804E-03  1768   0.113E-01    0.555E-01
DAV:   9    -0.128769935700E+03    0.11009E-02   -0.28243E-03  1664   0.144E-01    0.110E-01
DAV:  10    -0.128769940637E+03   -0.49376E-05   -0.63151E-05  1248   0.344E-02    0.948E-02
DAV:  11    -0.128769920964E+03    0.19674E-04   -0.27048E-04  1328   0.407E-02    0.527E-02
DAV:  12    -0.128769912915E+03    0.80484E-05   -0.33277E-05  1032   0.148E-02    0.135E-02
DAV:  13    -0.128769913161E+03   -0.24575E-06   -0.64409E-06   696   0.666E-03
  34 F= -.12876991E+03 E0= -.12870337E+03  d E =-.738759E-03
 trial-energy change:   -0.000739  1 .order   -0.000669   -0.000923   -0.000416
 step:   1.1409(harm=  1.5010)  dis= 0.00276  next Energy=  -128.769997 (dE=-0.822E-03)
 bond charge predicted
       N       E                     dE             d eps       ncg     rms          rms(c)
DAV:   1    -0.128770003800E+03   -0.90885E-04   -0.40676E-02  1152   0.428E-01    0.452E-02
DAV:   2    -0.128775402409E+03   -0.53986E-02   -0.22780E-02  1688   0.336E-01    0.119E+00
DAV:   3    -0.128771806565E+03    0.35958E-02   -0.45458E-02  1696   0.486E-01    0.693E-01
DAV:   4    -0.128770619007E+03    0.11876E-02   -0.18367E-03  1336   0.138E-01    0.374E-01
DAV:   5    -0.128770115760E+03    0.50325E-03   -0.14018E-03  1392   0.122E-01    0.142E-01
DAV:   6    -0.128770136680E+03   -0.20920E-04   -0.73699E-04  1272   0.668E-02    0.134E-01
DAV:   7    -0.128770080411E+03    0.56269E-04   -0.59532E-04  1376   0.690E-02    0.996E-02
DAV:   8    -0.128770167315E+03   -0.86903E-04   -0.16279E-04  1376   0.427E-02    0.183E-01
DAV:   9    -0.128770070596E+03    0.96719E-04   -0.12693E-04  1232   0.341E-02    0.887E-02
DAV:  10    -0.128770067826E+03    0.27703E-05   -0.75079E-06  1112   0.134E-02    0.796E-02
DAV:  11    -0.128770046464E+03    0.21362E-04   -0.79723E-05   808   0.211E-02    0.848E-03
DAV:  12    -0.128770047722E+03   -0.12578E-05   -0.26284E-06   696   0.509E-03    0.970E-03
DAV:  13    -0.128770047890E+03   -0.16880E-06   -0.66884E-07   616   0.273E-03
  35 F= -.12877005E+03 E0= -.12870360E+03  d E =-.873488E-03
 curvature:  -0.73 expect dE=-0.456E-03 dE for cont linesearch -0.362E-04
 ZBRENT: increasing intervall
 opt :   1.7730  next Energy=  -128.770077 (dE=-0.902E-03)
 bond charge predicted
       N       E                     dE             d eps       ncg     rms          rms(c)
DAV:   1    -0.128769887731E+03    0.15999E-03   -0.16286E-01  1152   0.857E-01    0.612E-02
DAV:   2    -0.128772851216E+03   -0.29635E-02   -0.13799E-02  1304   0.266E-01    0.886E-01
DAV:   3    -0.128773697413E+03   -0.84620E-03   -0.44972E-02  1528   0.492E-01    0.101E+00
DAV:   4    -0.128770699790E+03    0.29976E-02   -0.49613E-03  1368   0.188E-01    0.410E-01
DAV:   5    -0.128770287867E+03    0.41192E-03   -0.31811E-03  1616   0.159E-01    0.189E-01
DAV:   6    -0.128770127933E+03    0.15993E-03   -0.41505E-04  1304   0.734E-02    0.111E-01
DAV:   7    -0.128770151495E+03   -0.23562E-04   -0.59983E-04  1456   0.713E-02    0.169E-01
DAV:   8    -0.128770615052E+03   -0.46356E-03   -0.82345E-04  1616   0.878E-02    0.391E-01
DAV:   9    -0.128770085318E+03    0.52973E-03   -0.11597E-03  1480   0.956E-02    0.104E-01
DAV:  10    -0.128770089163E+03   -0.38447E-05   -0.32905E-05  1240   0.238E-02    0.925E-02
DAV:  11    -0.128770062740E+03    0.26423E-04   -0.15953E-04  1104   0.304E-02    0.206E-02
DAV:  12    -0.128770062714E+03    0.26135E-07   -0.10995E-05   824   0.940E-03    0.924E-03
DAV:  13    -0.128770062924E+03   -0.21007E-06   -0.16788E-06   688   0.353E-03
  36 F= -.12877006E+03 E0= -.12870374E+03  d E =-.888522E-03
 curvature:  -0.58 expect dE=-0.615E-03 dE for cont linesearch -0.225E-04
 ZBRENT: bracketing found
 ZBRENT: interpolating
 opt :   1.4760  next Energy=  -128.770099 (dE=-0.925E-03)
 bond charge predicted
       N       E                     dE             d eps       ncg     rms          rms(c)
DAV:   1    -0.128770064413E+03   -0.16989E-05   -0.36006E-02  1152   0.403E-01    0.237E-02
DAV:   2    -0.128774794398E+03   -0.47300E-02   -0.18728E-02  1720   0.322E-01    0.112E+00
DAV:   3    -0.128770254173E+03    0.45402E-02   -0.12204E-02  1464   0.252E-01    0.172E-01
DAV:   4    -0.128770182961E+03    0.71212E-04   -0.19323E-04  1336   0.624E-02    0.162E-01
DAV:   5    -0.128770116536E+03    0.66425E-04   -0.41640E-04  1408   0.626E-02    0.823E-02
DAV:   6    -0.128770106846E+03    0.96898E-05   -0.76590E-05  1264   0.229E-02    0.455E-02
DAV:   7    -0.128770144076E+03   -0.37230E-04   -0.78573E-05  1136   0.290E-02    0.107E-01
DAV:   8    -0.128770140998E+03    0.30788E-05   -0.35310E-05  1168   0.290E-02    0.108E-01
DAV:   9    -0.128770111253E+03    0.29745E-04   -0.28673E-04  1136   0.469E-02    0.484E-02
DAV:  10    -0.128770105358E+03    0.58946E-05   -0.92157E-05  1360   0.319E-02    0.410E-02
DAV:  11    -0.128770099703E+03    0.56555E-05   -0.27484E-05   808   0.146E-02    0.119E-02
DAV:  12    -0.128770100231E+03   -0.52812E-06   -0.58023E-06   712   0.614E-03
  37 F= -.12877010E+03 E0= -.12870378E+03  d E =-.925829E-03
 curvature:  -0.93 expect dE=-0.735E-03 dE for cont linesearch -0.114E-08
 trial: gam= 0.59562 g(F)=  0.791E-03 g(S)=  0.000E+00 ort = 0.137E-05 (trialstep = 0.955E+00)
 search vector abs. value=  0.133E-02
 bond charge predicted
       N       E                     dE             d eps       ncg     rms          rms(c)
DAV:   1    -0.128770374955E+03   -0.27525E-03   -0.32286E-01  1152   0.121E+00    0.740E-02
DAV:   2    -0.128771041124E+03   -0.66617E-03   -0.41843E-03  1208   0.207E-01    0.210E-01
DAV:   3    -0.128771579251E+03   -0.53813E-03   -0.45026E-03  1320   0.213E-01    0.452E-01
DAV:   4    -0.128772784536E+03   -0.12053E-02   -0.10724E-02  1504   0.266E-01    0.722E-01
DAV:   5    -0.128771845518E+03    0.93902E-03   -0.21213E-02  1512   0.327E-01    0.602E-01
DAV:   6    -0.128771095343E+03    0.75017E-03   -0.97133E-04  1248   0.669E-02    0.332E-01
DAV:   7    -0.128771036790E+03    0.58553E-04   -0.16223E-04  1312   0.425E-02    0.331E-01
DAV:   8    -0.128770812297E+03    0.22449E-03   -0.65546E-04  1400   0.702E-02    0.166E-01
DAV:   9    -0.128770738961E+03    0.73336E-04   -0.70795E-04  1344   0.820E-02    0.893E-02
DAV:  10    -0.128770715522E+03    0.23439E-04   -0.13813E-04  1288   0.449E-02    0.656E-02
DAV:  11    -0.128770805329E+03   -0.89807E-04   -0.18760E-04  1224   0.350E-02    0.170E-01
DAV:  12    -0.128770695901E+03    0.10943E-03   -0.39945E-04  1360   0.568E-02    0.130E-02
DAV:  13    -0.128770737329E+03   -0.41428E-04   -0.14399E-04   912   0.322E-02    0.102E-01
DAV:  14    -0.128770702231E+03    0.35098E-04   -0.68253E-05   776   0.197E-02    0.258E-02
DAV:  15    -0.128770703587E+03   -0.13558E-05   -0.37946E-06   744   0.601E-03    0.152E-02
DAV:  16    -0.128770704155E+03   -0.56782E-06   -0.79265E-07   624   0.275E-03
  38 F= -.12877070E+03 E0= -.12870455E+03  d E =-.603923E-03
 trial-energy change:   -0.000604  1 .order   -0.000573   -0.000756   -0.000391
 step:   1.5231(harm=  1.9778)  dis= 0.00358  next Energy=  -128.770827 (dE=-0.727E-03)
 bond charge predicted
       N       E                     dE             d eps       ncg     rms          rms(c)
DAV:   1    -0.128770741996E+03   -0.38409E-04   -0.11414E-01  1152   0.718E-01    0.517E-02
DAV:   2    -0.128772369137E+03   -0.16271E-02   -0.71446E-03  1256   0.203E-01    0.649E-01
DAV:   3    -0.128773840133E+03   -0.14710E-02   -0.29180E-02  1544   0.404E-01    0.916E-01
DAV:   4    -0.128771873916E+03    0.19662E-02   -0.38910E-03  1384   0.159E-01    0.499E-01
DAV:   5    -0.128770969750E+03    0.90417E-03   -0.13479E-03  1440   0.127E-01    0.206E-01
DAV:   6    -0.128770914851E+03    0.54900E-04   -0.68225E-04  1256   0.641E-02    0.758E-02
DAV:   7    -0.128770966431E+03   -0.51580E-04   -0.66236E-04  1368   0.766E-02    0.184E-01
DAV:   8    -0.128771351637E+03   -0.38521E-03   -0.52378E-04  1664   0.761E-02    0.365E-01
DAV:   9    -0.128770924016E+03    0.42762E-03   -0.57004E-04  1440   0.700E-02    0.155E-01
DAV:  10    -0.128770874265E+03    0.49751E-04   -0.10908E-04  1248   0.243E-02    0.748E-02
DAV:  11    -0.128770862702E+03    0.11563E-04   -0.13777E-04   976   0.294E-02    0.294E-02
DAV:  12    -0.128770862569E+03    0.13300E-06   -0.26129E-05  1024   0.139E-02    0.161E-02
DAV:  13    -0.128770862189E+03    0.38062E-06   -0.74980E-07   696   0.279E-03
  39 F= -.12877086E+03 E0= -.12870481E+03  d E =-.761958E-03
 curvature:  -1.34 expect dE=-0.638E-03 dE for cont linesearch -0.152E-04
 ZBRENT: extrapolating
 opt :   1.7680  next Energy=  -128.770877 (dE=-0.777E-03)
 bond charge predicted
       N       E                     dE             d eps       ncg     rms          rms(c)
DAV:   1    -0.128770849912E+03    0.12658E-04   -0.21207E-02  1152   0.309E-01    0.408E-02
DAV:   2    -0.128778976735E+03   -0.81268E-02   -0.33461E-02  1848   0.411E-01    0.146E+00
DAV:   3    -0.128771886877E+03    0.70899E-02   -0.50270E-02  1864   0.515E-01    0.512E-01
DAV:   4    -0.128771370944E+03    0.51593E-03   -0.56572E-04  1296   0.909E-02    0.353E-01
DAV:   5    -0.128771096974E+03    0.27397E-03   -0.13194E-03  1424   0.116E-01    0.229E-01
DAV:   6    -0.128770883867E+03    0.21311E-03   -0.55423E-04  1360   0.638E-02    0.439E-02
DAV:   7    -0.128770921438E+03   -0.37571E-04   -0.22421E-04  1392   0.485E-02    0.121E-01
DAV:   8    -0.128771041425E+03   -0.11999E-03   -0.13708E-04  1360   0.398E-02    0.212E-01
DAV:   9    -0.128770883760E+03    0.15767E-03   -0.26918E-04  1224   0.445E-02    0.698E-02
DAV:  10    -0.128770876696E+03    0.70638E-05   -0.13063E-05   920   0.108E-02    0.444E-02
DAV:  11    -0.128770874770E+03    0.19256E-05   -0.48160E-06   712   0.578E-03    0.318E-02
DAV:  12    -0.128770872562E+03    0.22079E-05   -0.43333E-06   680   0.609E-03    0.182E-02
DAV:  13    -0.128770874480E+03   -0.19176E-05   -0.42261E-06   664   0.626E-03    0.293E-02
DAV:  14    -0.128770872368E+03    0.21121E-05   -0.22685E-06   672   0.447E-03    0.163E-02
DAV:  15    -0.128770871685E+03    0.68289E-06   -0.14350E-06   648   0.288E-03
  40 F= -.12877087E+03 E0= -.12870489E+03  d E =-.771454E-03
 curvature:  -1.32 expect dE=-0.731E-03 dE for cont linesearch -0.289E-06
 trial: gam= 0.49044 g(F)=  0.552E-03 g(S)=  0.000E+00 ort =-0.171E-04 (trialstep = 0.112E+01)
 search vector abs. value=  0.856E-03
 bond charge predicted
       N       E                     dE             d eps       ncg     rms          rms(c)
DAV:   1    -0.128771009137E+03   -0.13677E-03   -0.28518E-01  1152   0.113E+00    0.566E-02
DAV:   2    -0.128773289784E+03   -0.22806E-02   -0.94989E-03  1224   0.281E-01    0.710E-01
DAV:   3    -0.128772644802E+03    0.64498E-03   -0.60581E-04  1200   0.673E-02    0.548E-01
DAV:   4    -0.128771521004E+03    0.11238E-02   -0.30145E-03  1808   0.182E-01    0.232E-01
DAV:   5    -0.128771741084E+03   -0.22008E-03   -0.27972E-03  1664   0.152E-01    0.333E-01
DAV:   6    -0.128771470912E+03    0.27017E-03   -0.43623E-04  1224   0.508E-02    0.175E-01
DAV:   7    -0.128771364180E+03    0.10673E-03   -0.74845E-04  1664   0.816E-02    0.129E-01
DAV:   8    -0.128771466480E+03   -0.10230E-03   -0.26977E-04  1296   0.498E-02    0.199E-01
DAV:   9    -0.128771345573E+03    0.12091E-03   -0.64848E-04  1368   0.723E-02    0.737E-02
DAV:  10    -0.128771332545E+03    0.13029E-04   -0.13480E-04  1304   0.568E-02    0.681E-02
DAV:  11    -0.128771412534E+03   -0.79989E-04   -0.52723E-04  1416   0.658E-02    0.150E-01
DAV:  12    -0.128771314849E+03    0.97685E-04   -0.29964E-04  1344   0.488E-02    0.290E-02
DAV:  13    -0.128771314218E+03    0.63085E-06   -0.40611E-06   872   0.632E-03
  41 F= -.12877131E+03 E0= -.12870541E+03  d E =-.442533E-03
 trial-energy change:   -0.000443  1 .order   -0.000368   -0.000608   -0.000129
 step:   1.2646(harm=  1.4192)  dis= 0.00458  next Energy=  -128.771323 (dE=-0.451E-03)
 bond charge predicted
       N       E                     dE             d eps       ncg     rms          rms(c)
DAV:   1    -0.128771325404E+03   -0.10555E-04   -0.49018E-03  1152   0.148E-01    0.309E-02
DAV:   2    -0.128778862510E+03   -0.75371E-02   -0.25488E-02  1896   0.399E-01    0.144E+00
DAV:   3    -0.128771689690E+03    0.71728E-02   -0.22245E-02  1808   0.333E-01    0.273E-01
DAV:   4    -0.128771657617E+03    0.32073E-04   -0.13028E-03  1600   0.115E-01    0.311E-01
DAV:   5    -0.128771337988E+03    0.31963E-03   -0.15132E-03  1608   0.102E-01    0.701E-02
DAV:   6    -0.128771353547E+03   -0.15560E-04   -0.47006E-05  1280   0.327E-02    0.718E-02
DAV:   7    -0.128771465854E+03   -0.11231E-03   -0.54624E-04  1448   0.686E-02    0.195E-01
DAV:   8    -0.128771510624E+03   -0.44770E-04   -0.57156E-05  1288   0.284E-02    0.228E-01
DAV:   9    -0.128771407295E+03    0.10333E-03   -0.60208E-05  1072   0.242E-02    0.161E-01
DAV:  10    -0.128771365450E+03    0.41845E-04   -0.36831E-05   920   0.174E-02    0.114E-01
DAV:  11    -0.128771331517E+03    0.33933E-04   -0.56263E-05   808   0.184E-02    0.493E-02
DAV:  12    -0.128771336481E+03   -0.49646E-05   -0.18066E-06   688   0.433E-03    0.542E-02
DAV:  13    -0.128771335469E+03    0.10123E-05   -0.31380E-07   600   0.175E-03    0.506E-02
DAV:  14    -0.128771332281E+03    0.31877E-05   -0.15112E-06   680   0.425E-03    0.394E-02
DAV:  15    -0.128771329572E+03    0.27090E-05   -0.37859E-06   680   0.482E-03    0.220E-02
DAV:  16    -0.128771329432E+03    0.14016E-06   -0.72352E-07   624   0.208E-03
  42 F= -.12877133E+03 E0= -.12870542E+03  d E =-.457747E-03
 curvature:  -0.82 expect dE=-0.218E-03 dE for cont linesearch -0.267E-05
 trial: gam= 0.16497 g(F)=  0.265E-03 g(S)=  0.000E+00 ort = 0.527E-04 (trialstep = 0.115E+01)
 search vector abs. value=  0.306E-03
 bond charge predicted
       N       E                     dE             d eps       ncg     rms          rms(c)
DAV:   1    -0.128771433423E+03   -0.10385E-03   -0.10872E-01  1152   0.697E-01    0.503E-02
DAV:   2    -0.128771675656E+03   -0.24223E-03   -0.16067E-03  1224   0.119E-01    0.168E-01
DAV:   3    -0.128773213075E+03   -0.15374E-02   -0.84618E-03  1632   0.220E-01    0.677E-01
DAV:   4    -0.128771799606E+03    0.14135E-02   -0.56856E-03  1584   0.175E-01    0.240E-01
DAV:   5    -0.128771965135E+03   -0.16553E-03   -0.18184E-03  1624   0.124E-01    0.337E-01
DAV:   6    -0.128771840995E+03    0.12414E-03   -0.85806E-05  1312   0.288E-02    0.277E-01
DAV:   7    -0.128771748622E+03    0.92372E-04   -0.28047E-03  1752   0.145E-01    0.212E-01
DAV:   8    -0.128771560427E+03    0.18820E-03   -0.36690E-04  1368   0.647E-02    0.455E-02
DAV:   9    -0.128771633202E+03   -0.72776E-04   -0.26491E-04  1432   0.519E-02    0.126E-01
DAV:  10    -0.128771554222E+03    0.78980E-04   -0.11375E-04  1360   0.422E-02    0.363E-02
DAV:  11    -0.128771553458E+03    0.76403E-06   -0.15424E-05  1184   0.102E-02    0.180E-02
DAV:  12    -0.128771553813E+03   -0.35466E-06   -0.33141E-06   696   0.698E-03
  43 F= -.12877155E+03 E0= -.12870558E+03  d E =-.224380E-03
 trial-energy change:   -0.000224  1 .order   -0.000169   -0.000314   -0.000024
 step:   1.1900(harm=  1.2410)  dis= 0.00196  next Energy=  -128.771554 (dE=-0.225E-03)
 reached required accuracy - stopping structural energy minimisation
