<?xml version="1.0" encoding="ISO-8859-1"?>
<modeling>
 <generator>
  <i name="program" type="string">vasp </i>
  <i name="version" type="string">6.2.0  </i>
  <i name="subversion" type="string">18Jan21 (build Feb  1 2022 01:28:57) complex                          parallel </i>
  <i name="platform" type="string">LinuxPGI </i>
  <i name="date" type="string">2022 05 17 </i>
  <i name="time" type="string">02:28:44 </i>
 </generator>
 <incar>
  <i type="string" name="PREC">Normal</i>
  <i type="string" name="ALGO">38</i>
  <i type="int" name="ISPIN">     1</i>
  <i name="AMIX">      0.20000000</i>
  <i name="BMIX">      0.00100000</i>
  <i name="AMIN">      0.01000000</i>
  <i type="int" name="NELM">    80</i>
  <i type="int" name="NELMIN">     8</i>
  <i type="int" name="IBRION">     2</i>
  <i name="EDIFF">      0.00000100</i>
  <i name="EDIFFG">     -0.03000000</i>
  <i type="int" name="NSW">   300</i>
  <i type="int" name="ISIF">     0</i>
  <i type="int" name="ISYM">     0</i>
  <i name="SYMPREC">      0.00001000</i>
  <i name="ENCUT">    420.00000000</i>
  <i type="logical" name="LREAL"> T  </i>
  <i type="int" name="ISMEAR">     0</i>
  <i name="SIGMA">      0.05000000</i>
  <i type="logical" name="LWAVE"> F  </i>
  <i type="logical" name="LVTOT"> F  </i>
  <i type="int" name="LORBIT">    11</i>
  <i type="logical" name="LASPH"> F  </i>
  <i type="string" name="GGA">Rp</i>
 </incar>
 <primitive_cell>
  <structure name="primitive_cell" >
   <crystal>
    <varray name="basis" >
     <v>       5.63719400       0.00000000       0.00000000 </v>
     <v>      -2.81859700       4.88195300       0.00000000 </v>
     <v>       0.00000000       0.00000000      41.42474600 </v>
    </varray>
    <i name="volume">   1140.03039171 </i>
    <varray name="rec_basis" >
     <v>       0.17739322       0.10241803      -0.00000000 </v>
     <v>       0.00000000       0.20483606       0.00000000 </v>
     <v>       0.00000000      -0.00000000       0.02414016 </v>
    </varray>
   </crystal>
   <varray name="positions" >
    <v>       0.33333300       0.16666700       0.36111100 </v>
    <v>       0.33333300       0.66666700       0.36111100 </v>
    <v>       0.83333300       0.16666700       0.36111100 </v>
    <v>       0.83333300       0.66666700       0.36111100 </v>
    <v>       0.00000000       0.00000000       0.41666700 </v>
    <v>       0.00000000       0.50000000       0.41666700 </v>
    <v>       0.50000000       0.00000000       0.41666700 </v>
    <v>       0.50000000       0.50000000       0.41666700 </v>
    <v>       0.16666700       0.33333300       0.47222200 </v>
    <v>       0.16666700       0.83333300       0.47222200 </v>
    <v>       0.66666700       0.33333300       0.47222200 </v>
    <v>       0.66666700       0.83333300       0.47222200 </v>
    <v>       0.33328587       0.16664388       0.52771411 </v>
    <v>       0.33332160       0.66666139       0.52771996 </v>
    <v>       0.83336376       0.16665500       0.52770830 </v>
    <v>       0.83336152       0.66670796       0.52771395 </v>
    <v>       0.99995210       0.00006047       0.58238269 </v>
    <v>       0.99984561       0.49983454       0.58241056 </v>
    <v>       0.50015256       0.00014858       0.58242280 </v>
    <v>       0.50003461       0.49992319       0.58242165 </v>
    <v>       0.16668438       0.33335920       0.64033584 </v>
    <v>       0.16669423       0.83332913       0.64037668 </v>
    <v>       0.66665173       0.33332014       0.64047728 </v>
    <v>       0.66662826       0.83332011       0.64038125 </v>
   </varray>
  </structure>
  <varray name="primitive_index" >
   <v type="int" >        1 </v>
   <v type="int" >        2 </v>
   <v type="int" >        3 </v>
   <v type="int" >        4 </v>
   <v type="int" >        5 </v>
   <v type="int" >        6 </v>
   <v type="int" >        7 </v>
   <v type="int" >        8 </v>
   <v type="int" >        9 </v>
   <v type="int" >       10 </v>
   <v type="int" >       11 </v>
   <v type="int" >       12 </v>
   <v type="int" >       13 </v>
   <v type="int" >       14 </v>
   <v type="int" >       15 </v>
   <v type="int" >       16 </v>
   <v type="int" >       17 </v>
   <v type="int" >       18 </v>
   <v type="int" >       19 </v>
   <v type="int" >       20 </v>
   <v type="int" >       21 </v>
   <v type="int" >       22 </v>
   <v type="int" >       23 </v>
   <v type="int" >       24 </v>
  </varray>
 </primitive_cell>
 <kpoints>
  <generation param="Gamma">
   <v type="int" name="divisions">       2        2        1 </v>
   <v name="usershift">      0.00000000       0.00000000       0.00000000 </v>
   <v name="genvec1">      0.50000000       0.00000000       0.00000000 </v>
   <v name="genvec2">      0.00000000       0.50000000       0.00000000 </v>
   <v name="genvec3">      0.00000000       0.00000000       1.00000000 </v>
   <v name="shift">      0.00000000       0.00000000       0.00000000 </v>
  </generation>
  <varray name="kpointlist" >
   <v>       0.00000000       0.00000000       0.00000000 </v>
   <v>       0.50000000       0.00000000       0.00000000 </v>
   <v>       0.00000000       0.50000000       0.00000000 </v>
   <v>       0.50000000       0.50000000       0.00000000 </v>
  </varray>
  <varray name="weights" >
   <v>       0.25000000 </v>
   <v>       0.25000000 </v>
   <v>       0.25000000 </v>
   <v>       0.25000000 </v>
  </varray>
 </kpoints>
 <parameters>
  <separator name="general" >
   <i type="string" name="SYSTEM">unknown system</i>
   <i type="logical" name="LCOMPAT"> F  </i>
  </separator>
  <separator name="electronic" >
   <i type="string" name="PREC">normal</i>
   <i name="ENMAX">    420.00000000</i>
   <i name="ENAUG">    358.96600000</i>
   <i name="EDIFF">      0.00000100</i>
   <i type="int" name="IALGO">    38</i>
   <i type="int" name="IWAVPR">    11</i>
   <i type="int" name="NBANDS">   144</i>
   <i type="int" name="NBANDSLOW">    -1</i>
   <i type="int" name="NBANDSHIGH">    -1</i>
   <i name="NELECT">    240.00000000</i>
   <i type="int" name="TURBO">     0</i>
   <i type="int" name="IRESTART">     0</i>
   <i type="int" name="NREBOOT">     0</i>
   <i type="int" name="NMIN">     0</i>
   <i name="EREF">      0.00000000</i>
   <separator name="electronic smearing" >
    <i type="int" name="ISMEAR">     0</i>
    <i name="SIGMA">      0.05000000</i>
    <i name="KSPACING">      0.50000000</i>
    <i type="logical" name="KGAMMA"> T  </i>
    <i type="logical" name="KBLOWUP"> T  </i>
   </separator>
   <separator name="electronic projectors" >
    <i type="logical" name="LREAL"> T  </i>
    <v name="ROPT">      0.00000000</v>
    <i type="int" name="LMAXPAW">  -100</i>
    <i type="int" name="LMAXMIX">     2</i>
    <i type="logical" name="NLSPLINE"> F  </i>
   </separator>
   <separator name="electronic startup" >
    <i type="int" name="ISTART">     0</i>
    <i type="int" name="ICHARG">     2</i>
    <i type="int" name="INIWAV">     1</i>
   </separator>
   <separator name="electronic spin" >
    <i type="int" name="ISPIN">     1</i>
    <i type="logical" name="LNONCOLLINEAR"> F  </i>
    <v name="MAGMOM">      1.00000000      1.00000000      1.00000000      1.00000000      1.00000000      1.00000000      1.00000000      1.00000000      1.00000000      1.00000000      1.00000000      1.00000000      1.00000000      1.00000000      1.00000000      1.00000000      1.00000000      1.00000000      1.00000000      1.00000000
      1.00000000      1.00000000      1.00000000      1.00000000</v>
    <i name="NUPDOWN">     -1.00000000</i>
    <i type="logical" name="LSORBIT"> F  </i>
    <v name="SAXIS">      0.00000000      0.00000000      1.00000000</v>
    <i type="logical" name="LSPIRAL"> F  </i>
    <v name="QSPIRAL">      0.00000000      0.00000000      0.00000000</v>
    <i type="logical" name="LZEROZ"> F  </i>
   </separator>
   <separator name="electronic exchange-correlation" >
    <i type="logical" name="LASPH"> F  </i>
    <i type="logical" name="LMETAGGA"> F  </i>
   </separator>
   <separator name="electronic convergence" >
    <i type="int" name="NELM">    80</i>
    <i type="int" name="NELMDL">     0</i>
    <i type="int" name="NELMIN">     8</i>
    <i name="ENINI">    420.00000000</i>
    <separator name="electronic convergence detail" >
     <i type="logical" name="LDIAG"> T  </i>
     <i type="logical" name="LSUBROT"> F  </i>
     <i name="WEIMIN">      0.00100000</i>
     <i name="EBREAK">      0.00000000</i>
     <i name="DEPER">      0.30000000</i>
     <i type="int" name="NRMM">     4</i>
     <i name="TIME">      0.40000000</i>
    </separator>
   </separator>
   <separator name="electronic mixer" >
    <i name="AMIX">      0.20000000</i>
    <i name="BMIX">      0.00100000</i>
    <i name="AMIN">      0.01000000</i>
    <i name="AMIX_MAG">      0.80000000</i>
    <i name="BMIX_MAG">      0.00100000</i>
    <separator name="electronic mixer details" >
     <i type="int" name="IMIX">     4</i>
     <i type="logical" name="MIXFIRST"> F  </i>
     <i type="int" name="MAXMIX">   -45</i>
     <i name="WC">    100.00000000</i>
     <i type="int" name="INIMIX">     1</i>
     <i type="int" name="MIXPRE">     1</i>
     <i type="int" name="MREMOVE">     5</i>
    </separator>
   </separator>
   <separator name="electronic dipolcorrection" >
    <i type="logical" name="LDIPOL"> F  </i>
    <i type="logical" name="LMONO"> F  </i>
    <i type="int" name="IDIPOL">     0</i>
    <i name="EPSILON">      1.00000000</i>
    <v name="DIPOL">   -100.00000000   -100.00000000   -100.00000000</v>
    <i name="EFIELD">      0.00000000</i>
   </separator>
  </separator>
  <separator name="grids" >
   <i type="int" name="NGX">    28</i>
   <i type="int" name="NGY">    28</i>
   <i type="int" name="NGZ">   210</i>
   <i type="int" name="NGXF">    56</i>
   <i type="int" name="NGYF">    56</i>
   <i type="int" name="NGZF">   420</i>
   <i type="logical" name="ADDGRID"> F  </i>
  </separator>
  <separator name="ionic" >
   <i type="int" name="NSW">   300</i>
   <i type="int" name="IBRION">     2</i>
   <i type="int" name="MDALGO">     0</i>
   <i type="int" name="ISIF">     0</i>
   <i name="PSTRESS">      0.00000000</i>
   <i name="EDIFFG">     -0.03000000</i>
   <i type="int" name="NFREE">     1</i>
   <i name="POTIM">      0.50000000</i>
   <i name="SMASS">     -3.00000000</i>
   <i name="SCALEE">      1.00000000</i>
  </separator>
  <separator name="ionic md" >
   <i name="TEBEG">      0.00010000</i>
   <i name="TEEND">      0.00010000</i>
   <i type="int" name="NBLOCK">     1</i>
   <i type="int" name="KBLOCK">   300</i>
   <i type="int" name="NPACO">   256</i>
   <i name="APACO">     16.00000000</i>
  </separator>
  <separator name="symmetry" >
   <i type="int" name="ISYM">     0</i>
   <i name="SYMPREC">      0.00001000</i>
  </separator>
  <separator name="dos" >
   <i type="int" name="LORBIT">    11</i>
   <v name="RWIGS">     -1.00000000</v>
   <i type="int" name="NEDOS">   301</i>
   <i name="EMIN">     10.00000000</i>
   <i name="EMAX">    -10.00000000</i>
   <i name="EFERMI">      0.00000000</i>
  </separator>
  <separator name="writing" >
   <i type="int" name="NWRITE">     2</i>
   <i type="logical" name="LWAVE"> F  </i>
   <i type="logical" name="LDOWNSAMPLE"> F  </i>
   <i type="logical" name="LCHARG"> T  </i>
   <i type="logical" name="LPARD"> F  </i>
   <i type="logical" name="LVTOT"> F  </i>
   <i type="logical" name="LVHAR"> F  </i>
   <i type="logical" name="LELF"> F  </i>
   <i type="logical" name="LOPTICS"> F  </i>
   <v name="STM">      0.00000000      0.00000000      0.00000000      0.00000000      0.00000000      0.00000000      0.00000000</v>
  </separator>
  <separator name="performance" >
   <i type="int" name="NPAR">     4</i>
   <i type="int" name="NSIM">     4</i>
   <i type="int" name="NBLK">    -1</i>
   <i type="logical" name="LPLANE"> T  </i>
   <i type="logical" name="LSCALAPACK"> T  </i>
   <i type="logical" name="LSCAAWARE"> F  </i>
   <i type="logical" name="LSCALU"> F  </i>
   <i type="logical" name="LASYNC"> F  </i>
   <i type="logical" name="LORBITALREAL"> F  </i>
  </separator>
  <separator name="miscellaneous" >
   <i type="int" name="IDIOT">     3</i>
   <i type="int" name="PHON_NSTRUCT">    -1</i>
   <i type="logical" name="LMUSIC"> F  </i>
   <v name="POMASS">    195.08000000</v>
   <v name="DARWINR">      0.00000000</v>
   <v name="DARWINV">      1.00000000</v>
   <i type="logical" name="LCORR"> T  </i>
  </separator>
  <i type="logical" name="GGA_COMPAT"> T  </i>
  <i type="logical" name="LBERRY"> F  </i>
  <i type="int" name="ICORELEVEL">     0</i>
  <i type="logical" name="LDAU"> F  </i>
  <i type="int" name="I_CONSTRAINED_M">     0</i>
  <separator name="electronic exchange-correlation" >
   <i type="string" name="GGA">RP</i>
   <i type="int" name="VOSKOWN">     0</i>
   <i type="logical" name="LHFCALC"> F  </i>
   <i type="string" name="PRECFOCK"></i>
   <i type="logical" name="LSYMGRAD"> F  </i>
   <i type="logical" name="LHFONE"> F  </i>
   <i type="logical" name="LRHFCALC"> F  </i>
   <i type="logical" name="LTHOMAS"> F  </i>
   <i type="logical" name="LMODELHF"> F  </i>
   <i type="logical" name="LFOCKACE"> F  </i>
   <i name="ENCUT4O">     -1.00000000</i>
   <i type="int" name="EXXOEP">     0</i>
   <i type="int" name="FOURORBIT">     0</i>
   <i name="AEXX">      0.00000000</i>
   <i name="HFALPHA">      0.00000000</i>
   <i name="MCALPHA">      0.00000000</i>
   <i name="ALDAX">      1.00000000</i>
   <i name="AGGAX">      1.00000000</i>
   <i name="ALDAC">      1.00000000</i>
   <i name="AGGAC">      1.00000000</i>
   <i type="int" name="NKREDX">     1</i>
   <i type="int" name="NKREDY">     1</i>
   <i type="int" name="NKREDZ">     1</i>
   <i type="logical" name="SHIFTRED"> F  </i>
   <i type="logical" name="ODDONLY"> F  </i>
   <i type="logical" name="EVENONLY"> F  </i>
   <i type="int" name="LMAXFOCK">     0</i>
   <i type="int" name="NMAXFOCKAE">     0</i>
   <i type="logical" name="LFOCKAEDFT"> F  </i>
   <i name="HFSCREEN">      0.00000000</i>
   <i name="HFSCREENC">      0.00000000</i>
   <i type="int" name="NBANDSGWLOW">     0</i>
  </separator>
  <separator name="vdW DFT" >
   <i type="logical" name="LUSE_VDW"> F  </i>
   <i name="Zab_VDW">     -0.84910000</i>
   <i name="PARAM1">      0.12340000</i>
   <i name="PARAM2">      1.00000000</i>
   <i name="PARAM3">      0.00000000</i>
  </separator>
  <separator name="model GW" >
   <i type="int" name="MODEL_GW">     0</i>
   <i name="MODEL_EPS0">     28.50075979</i>
   <i name="MODEL_ALPHA">      1.00000000</i>
  </separator>
  <separator name="linear response parameters" >
   <i type="logical" name="LEPSILON"> F  </i>
   <i type="logical" name="LRPA"> F  </i>
   <i type="logical" name="LNABLA"> F  </i>
   <i type="logical" name="LVEL"> F  </i>
   <i type="int" name="KINTER">     0</i>
   <i name="CSHIFT">      0.10000000</i>
   <i name="OMEGAMAX">     -1.00000000</i>
   <i name="DEG_THRESHOLD">      0.00200000</i>
   <i name="RTIME">     -0.10000000</i>
   <i name="WPLASMAI">      0.00000000</i>
   <v name="DFIELD">      0.00000000      0.00000000      0.00000000</v>
   <v name="WPLASMA">      0.00000000      0.00000000      0.00000000      0.00000000      0.00000000      0.00000000      0.00000000      0.00000000      0.00000000</v>
  </separator>
  <separator name="orbital magnetization" >
   <i type="logical" name="NUCIND"> F  </i>
   <v name="MAGPOS">      0.00000000      0.00000000      0.00000000</v>
   <i type="logical" name="LNICSALL"> T  </i>
   <i type="logical" name="ORBITALMAG"> F  </i>
   <i type="logical" name="LMAGBLOCH"> F  </i>
   <i type="logical" name="LCHIMAG"> F  </i>
   <i type="logical" name="LGAUGE"> T  </i>
   <i type="int" name="MAGATOM">     0</i>
   <v name="MAGDIPOL">      0.00000000      0.00000000      0.00000000</v>
   <v name="AVECCONST">      0.00000000      0.00000000      0.00000000</v>
  </separator>
  <separator name="response functions" >
   <i type="logical" name="LFINITE_TEMPERATURE"> F  </i>
   <i type="logical" name="LADDER"> F  </i>
   <i type="logical" name="LRPAFORCE"> F  </i>
   <i type="logical" name="LFXC"> F  </i>
   <i type="logical" name="LHARTREE"> T  </i>
   <i type="int" name="IBSE">     0</i>
   <v type="int" name="KPOINT">    -1     0     0     0</v>
   <i type="logical" name="LTCTC"> F  </i>
   <i type="logical" name="LTCTE"> F  </i>
   <i type="logical" name="LTETE"> F  </i>
   <i type="logical" name="LTRIPLET"> F  </i>
   <i type="logical" name="LFXCEPS"> F  </i>
   <i type="logical" name="LFXHEG"> F  </i>
   <i type="int" name="NATURALO">     2</i>
   <i type="logical" name="LHOLEGF"> F  </i>
   <i type="logical" name="L2ORDER"> F  </i>
   <i type="logical" name="LDMP1"> F  </i>
   <i type="logical" name="LMP2LT"> F  </i>
   <i type="logical" name="LSMP2LT"> F  </i>
   <i type="logical" name="LGWLF"> F  </i>
   <i name="ENCUTGW">     -2.00000000</i>
   <i name="ENCUTGWSOFT">     -2.00000000</i>
   <i name="ENCUTLF">     -1.00000000</i>
   <i type="logical" name="LESF_SPLINES"> F  </i>
   <i type="int" name="LMAXMP2">    -1</i>
   <i name="SCISSOR">      0.00000000</i>
   <i type="int" name="NOMEGA">     0</i>
   <i type="int" name="NOMEGAR">     0</i>
   <i type="int" name="NBANDSGW">    -1</i>
   <i type="int" name="NBANDSO">    -1</i>
   <i type="int" name="NBANDSV">    -1</i>
   <i type="int" name="NELM">    80</i>
   <i type="int" name="NELMHF">     1</i>
   <i type="int" name="DIM">     3</i>
   <i type="int" name="IESPILON">     4</i>
   <i type="int" name="ANTIRES">     0</i>
   <i name="OMEGAMAX">    -30.00000000</i>
   <i name="OMEGAMIN">    -30.00000000</i>
   <i name="OMEGATL">   -200.00000000</i>
   <i type="int" name="OMEGAGRID">     0</i>
   <i name="CSHIFT">     -0.10000000</i>
   <i type="logical" name="LSELFENERGY"> F  </i>
   <i type="logical" name="LSPECTRAL"> F  </i>
   <i type="logical" name="LSPECTRALGW"> F  </i>
   <i type="logical" name="LSINGLES"> F  </i>
   <i type="logical" name="LFERMIGW"> F  </i>
   <i type="logical" name="ODDONLYGW"> F  </i>
   <i type="logical" name="EVENONLYGW"> F  </i>
   <i type="int" name="NKREDLFX">     1</i>
   <i type="int" name="NKREDLFY">     1</i>
   <i type="int" name="NKREDLFZ">     1</i>
   <i type="int" name="MAXMEM">  2800</i>
   <i type="int" name="TELESCOPE">     0</i>
   <i type="int" name="NTAUPAR">    -1</i>
   <i type="int" name="NOMEGAPAR">    -1</i>
   <i name="DAMP_NEWTON">      0.80000001</i>
   <i name="LAMBDA">      1.00000000</i>
  </separator>
  <separator name="External order field" >
   <i name="OFIELD_KAPPA">      0.00000000</i>
   <v name="OFIELD_K">      0.00000000      0.00000000      0.00000000</v>
   <i name="OFIELD_Q6_NEAR">      0.00000000</i>
   <i name="OFIELD_Q6_FAR">      0.00000000</i>
   <i name="OFIELD_A">      0.00000000</i>
  </separator>
 </parameters>
 <atominfo>
  <atoms>      24 </atoms>
  <types>       1 </types>
  <array name="atoms" >
   <dimension dim="1">ion</dimension>
   <field type="string">element</field>
   <field type="int">atomtype</field>
   <set>
    <rc><c>Pt</c><c>   1</c></rc>
    <rc><c>Pt</c><c>   1</c></rc>
    <rc><c>Pt</c><c>   1</c></rc>
    <rc><c>Pt</c><c>   1</c></rc>
    <rc><c>Pt</c><c>   1</c></rc>
    <rc><c>Pt</c><c>   1</c></rc>
    <rc><c>Pt</c><c>   1</c></rc>
    <rc><c>Pt</c><c>   1</c></rc>
    <rc><c>Pt</c><c>   1</c></rc>
    <rc><c>Pt</c><c>   1</c></rc>
    <rc><c>Pt</c><c>   1</c></rc>
    <rc><c>Pt</c><c>   1</c></rc>
    <rc><c>Pt</c><c>   1</c></rc>
    <rc><c>Pt</c><c>   1</c></rc>
    <rc><c>Pt</c><c>   1</c></rc>
    <rc><c>Pt</c><c>   1</c></rc>
    <rc><c>Pt</c><c>   1</c></rc>
    <rc><c>Pt</c><c>   1</c></rc>
    <rc><c>Pt</c><c>   1</c></rc>
    <rc><c>Pt</c><c>   1</c></rc>
    <rc><c>Pt</c><c>   1</c></rc>
    <rc><c>Pt</c><c>   1</c></rc>
    <rc><c>Pt</c><c>   1</c></rc>
    <rc><c>Pt</c><c>   1</c></rc>
   </set>
  </array>
  <array name="atomtypes" >
   <dimension dim="1">type</dimension>
   <field type="int">atomspertype</field>
   <field type="string">element</field>
   <field>mass</field>
   <field>valence</field>
   <field type="string">pseudopotential</field>
   <set>
    <rc><c>  24</c><c>Pt</c><c>    195.08000000</c><c>     10.00000000</c><c>  PAW_PBE Pt 04Feb2005                  </c></rc>
   </set>
  </array>
 </atominfo>
 <structure name="initialpos" >
  <crystal>
   <varray name="basis" >
    <v>       5.63719400       0.00000000       0.00000000 </v>
    <v>      -2.81859700       4.88195300       0.00000000 </v>
    <v>       0.00000000       0.00000000      41.42474600 </v>
   </varray>
   <i name="volume">   1140.03039171 </i>
   <varray name="rec_basis" >
    <v>       0.17739322       0.10241803      -0.00000000 </v>
    <v>       0.00000000       0.20483606       0.00000000 </v>
    <v>       0.00000000      -0.00000000       0.02414016 </v>
   </varray>
  </crystal>
  <varray name="positions" >
   <v>       0.33333300       0.16666700       0.36111100 </v>
   <v>       0.33333300       0.66666700       0.36111100 </v>
   <v>       0.83333300       0.16666700       0.36111100 </v>
   <v>       0.83333300       0.66666700       0.36111100 </v>
   <v>       0.00000000       0.00000000       0.41666700 </v>
   <v>       0.00000000       0.50000000       0.41666700 </v>
   <v>       0.50000000       0.00000000       0.41666700 </v>
   <v>       0.50000000       0.50000000       0.41666700 </v>
   <v>       0.16666700       0.33333300       0.47222200 </v>
   <v>       0.16666700       0.83333300       0.47222200 </v>
   <v>       0.66666700       0.33333300       0.47222200 </v>
   <v>       0.66666700       0.83333300       0.47222200 </v>
   <v>       0.33328587       0.16664388       0.52771411 </v>
   <v>       0.33332160       0.66666139       0.52771996 </v>
   <v>       0.83336376       0.16665500       0.52770830 </v>
   <v>       0.83336152       0.66670796       0.52771395 </v>
   <v>       0.99995210       0.00006047       0.58238269 </v>
   <v>       0.99984561       0.49983454       0.58241056 </v>
   <v>       0.50015256       0.00014858       0.58242280 </v>
   <v>       0.50003461       0.49992319       0.58242165 </v>
   <v>       0.16668438       0.33335920       0.64033584 </v>
   <v>       0.16669423       0.83332913       0.64037668 </v>
   <v>       0.66665173       0.33332014       0.64047728 </v>
   <v>       0.66662826       0.83332011       0.64038125 </v>
  </varray>
  <varray name="selective"  type="logical" >
   <v type="logical" >  F  F  F </v>
   <v type="logical" >  F  F  F </v>
   <v type="logical" >  F  F  F </v>
   <v type="logical" >  F  F  F </v>
   <v type="logical" >  F  F  F </v>
   <v type="logical" >  F  F  F </v>
   <v type="logical" >  F  F  F </v>
   <v type="logical" >  F  F  F </v>
   <v type="logical" >  F  F  F </v>
   <v type="logical" >  F  F  F </v>
   <v type="logical" >  F  F  F </v>
   <v type="logical" >  F  F  F </v>
   <v type="logical" >  T  T  T </v>
   <v type="logical" >  T  T  T </v>
   <v type="logical" >  T  T  T </v>
   <v type="logical" >  T  T  T </v>
   <v type="logical" >  T  T  T </v>
   <v type="logical" >  T  T  T </v>
   <v type="logical" >  T  T  T </v>
   <v type="logical" >  T  T  T </v>
   <v type="logical" >  T  T  T </v>
   <v type="logical" >  T  T  T </v>
   <v type="logical" >  T  T  T </v>
   <v type="logical" >  T  T  T </v>
  </varray>
  <nose>
   <v>      -3.00000000       0.00000000       0.00010000       0.00010000 </v>
  </nose>
 </structure>
 <calculation>
  <scstep>
   <time name="dav">    3.43    3.43</time>
   <time name="total">    3.57    3.58</time>
   <energy>
    <i name="alphaZ">    480.28159767 </i>
    <i name="ewald"> 274036.36663083 </i>
    <i name="hartreedc">-292251.16618819 </i>
    <i name="XCdc">     74.11150258 </i>
    <i name="pawpsdc">  16720.94281017 </i>
    <i name="pawaedc"> -16018.99855229 </i>
    <i name="eentropy">     -0.01497244 </i>
    <i name="bandstr">   1071.00252372 </i>
    <i name="atom">  17479.66102378 </i>
    <i name="e_fr_energy">   1592.18637580 </i>
    <i name="e_wo_entrp">   1592.20134825 </i>
    <i name="e_0_energy">   1592.19386203 </i>
   </energy>
  </scstep>
  <scstep>
   <time name="dav">    3.97    3.98</time>
   <time name="total">    3.97    3.98</time>
   <energy>
    <i name="e_fr_energy">     -8.69461653 </i>
    <i name="e_wo_entrp">     -8.66794629 </i>
    <i name="e_0_energy">     -8.68128141 </i>
   </energy>
  </scstep>
  <scstep>
   <time name="dav">    3.89    3.91</time>
   <time name="total">    3.90    3.91</time>
   <energy>
    <i name="e_fr_energy">   -131.30313940 </i>
    <i name="e_wo_entrp">   -131.20715431 </i>
    <i name="e_0_energy">   -131.25514686 </i>
   </energy>
  </scstep>
  <scstep>
   <time name="dav">    4.35    4.36</time>
   <time name="total">    4.35    4.36</time>
   <energy>
    <i name="e_fr_energy">   -136.85904387 </i>
    <i name="e_wo_entrp">   -136.75152972 </i>
    <i name="e_0_energy">   -136.80528680 </i>
   </energy>
  </scstep>
  <scstep>
   <time name="dav">    3.89    3.90</time>
   <time name="total">    4.11    4.12</time>
   <energy>
    <i name="e_fr_energy">   -136.99214567 </i>
    <i name="e_wo_entrp">   -136.88380957 </i>
    <i name="e_0_energy">   -136.93797762 </i>
   </energy>
  </scstep>
  <scstep>
   <time name="dav">    4.06    4.07</time>
   <time name="total">    4.41    4.42</time>
   <energy>
    <i name="e_fr_energy">   -182.31639378 </i>
    <i name="e_wo_entrp">   -182.27408100 </i>
    <i name="e_0_energy">   -182.29523739 </i>
   </energy>
  </scstep>
  <scstep>
   <time name="dav">    4.03    4.04</time>
   <time name="total">    4.37    4.38</time>
   <energy>
    <i name="e_fr_energy">   -309.62431444 </i>
    <i name="e_wo_entrp">   -309.59526426 </i>
    <i name="e_0_energy">   -309.60978935 </i>
   </energy>
  </scstep>
  <scstep>
   <time name="dav">    5.27    5.28</time>
   <time name="total">    5.60    5.61</time>
   <energy>
    <i name="e_fr_energy">  -1330.72768571 </i>
    <i name="e_wo_entrp">  -1330.70882511 </i>
    <i name="e_0_energy">  -1330.71825541 </i>
   </energy>
  </scstep>
  <scstep>
   <time name="dav">    4.28    4.28</time>
   <time name="total">    4.61    4.62</time>
   <energy>
    <i name="e_fr_energy">  -1425.22580962 </i>
    <i name="e_wo_entrp">  -1425.21109682 </i>
    <i name="e_0_energy">  -1425.21845322 </i>
   </energy>
  </scstep>
  <scstep>
   <time name="dav">    4.09    4.10</time>
   <time name="total">    4.44    4.45</time>
   <energy>
    <i name="e_fr_energy">   -646.82006298 </i>
    <i name="e_wo_entrp">   -646.81058697 </i>
    <i name="e_0_energy">   -646.81532498 </i>
   </energy>
  </scstep>
  <scstep>
   <time name="dav">    3.93    3.94</time>
   <time name="total">    4.30    4.30</time>
   <energy>
    <i name="e_fr_energy">   -749.70802235 </i>
    <i name="e_wo_entrp">   -749.66941634 </i>
    <i name="e_0_energy">   -749.68871935 </i>
   </energy>
  </scstep>
  <scstep>
   <time name="dav">    4.12    4.13</time>
   <time name="total">    4.48    4.49</time>
   <energy>
    <i name="e_fr_energy">   -522.00069777 </i>
    <i name="e_wo_entrp">   -522.00029507 </i>
    <i name="e_0_energy">   -522.00049642 </i>
   </energy>
  </scstep>
  <scstep>
   <time name="dav">    4.27    4.28</time>
   <time name="total">    4.62    4.63</time>
   <energy>
    <i name="e_fr_energy">   -131.96498140 </i>
    <i name="e_wo_entrp">   -131.95732069 </i>
    <i name="e_0_energy">   -131.96115104 </i>
   </energy>
  </scstep>
  <scstep>
   <time name="dav">    3.86    3.86</time>
   <time name="total">    4.21    4.21</time>
   <energy>
    <i name="e_fr_energy">   -148.39581369 </i>
    <i name="e_wo_entrp">   -148.37495147 </i>
    <i name="e_0_energy">   -148.38538258 </i>
   </energy>
  </scstep>
  <scstep>
   <time name="dav">    3.93    3.94</time>
   <time name="total">    4.28    4.29</time>
   <energy>
    <i name="e_fr_energy">   -141.21155177 </i>
    <i name="e_wo_entrp">   -141.12533458 </i>
    <i name="e_0_energy">   -141.16844317 </i>
   </energy>
  </scstep>
  <scstep>
   <time name="dav">    4.01    4.02</time>
   <time name="total">    4.37    4.38</time>
   <energy>
    <i name="e_fr_energy">   -149.40852205 </i>
    <i name="e_wo_entrp">   -149.36591754 </i>
    <i name="e_0_energy">   -149.38721979 </i>
   </energy>
  </scstep>
  <scstep>
   <time name="dav">    3.93    3.94</time>
   <time name="total">    4.29    4.30</time>
   <energy>
    <i name="e_fr_energy">   -149.05202388 </i>
    <i name="e_wo_entrp">   -149.02105002 </i>
    <i name="e_0_energy">   -149.03653695 </i>
   </energy>
  </scstep>
  <scstep>
   <time name="dav">    4.05    4.05</time>
   <time name="total">    4.39    4.40</time>
   <energy>
    <i name="e_fr_energy">   -148.93181816 </i>
    <i name="e_wo_entrp">   -148.86835443 </i>
    <i name="e_0_energy">   -148.90008629 </i>
   </energy>
  </scstep>
  <scstep>
   <time name="dav">    3.60    3.61</time>
   <time name="total">    3.95    3.96</time>
   <energy>
    <i name="e_fr_energy">   -144.06861524 </i>
    <i name="e_wo_entrp">   -143.96929057 </i>
    <i name="e_0_energy">   -144.01895291 </i>
   </energy>
  </scstep>
  <scstep>
   <time name="dav">    3.64    3.65</time>
   <time name="total">    3.98    3.99</time>
   <energy>
    <i name="e_fr_energy">   -145.33845752 </i>
    <i name="e_wo_entrp">   -145.25869212 </i>
    <i name="e_0_energy">   -145.29857482 </i>
   </energy>
  </scstep>
  <scstep>
   <time name="dav">    3.65    3.66</time>
   <time name="total">    3.99    4.00</time>
   <energy>
    <i name="e_fr_energy">   -138.61117308 </i>
    <i name="e_wo_entrp">   -138.51303968 </i>
    <i name="e_0_energy">   -138.56210638 </i>
   </energy>
  </scstep>
  <scstep>
   <time name="dav">    3.84    3.85</time>
   <time name="total">    4.18    4.18</time>
   <energy>
    <i name="e_fr_energy">   -139.97789518 </i>
    <i name="e_wo_entrp">   -139.95991414 </i>
    <i name="e_0_energy">   -139.96890466 </i>
   </energy>
  </scstep>
  <scstep>
   <time name="dav">    3.56    3.57</time>
   <time name="total">    3.90    3.91</time>
   <energy>
    <i name="e_fr_energy">   -139.53038851 </i>
    <i name="e_wo_entrp">   -139.50140417 </i>
    <i name="e_0_energy">   -139.51589634 </i>
   </energy>
  </scstep>
  <scstep>
   <time name="dav">    3.77    3.77</time>
   <time name="total">    4.10    4.11</time>
   <energy>
    <i name="e_fr_energy">   -137.90068093 </i>
    <i name="e_wo_entrp">   -137.79446732 </i>
    <i name="e_0_energy">   -137.84757413 </i>
   </energy>
  </scstep>
  <scstep>
   <time name="dav">    3.84    3.84</time>
   <time name="total">    4.18    4.19</time>
   <energy>
    <i name="e_fr_energy">   -136.72602378 </i>
    <i name="e_wo_entrp">   -136.64256510 </i>
    <i name="e_0_energy">   -136.68429444 </i>
   </energy>
  </scstep>
  <scstep>
   <time name="dav">    3.75    3.76</time>
   <time name="total">    4.10    4.11</time>
   <energy>
    <i name="e_fr_energy">   -136.69806954 </i>
    <i name="e_wo_entrp">   -136.60328666 </i>
    <i name="e_0_energy">   -136.65067810 </i>
   </energy>
  </scstep>
  <scstep>
   <time name="dav">    4.00    4.00</time>
   <time name="total">    4.36    4.37</time>
   <energy>
    <i name="e_fr_energy">   -136.73625144 </i>
    <i name="e_wo_entrp">   -136.64715304 </i>
    <i name="e_0_energy">   -136.69170224 </i>
   </energy>
  </scstep>
  <scstep>
   <time name="dav">    3.90    3.91</time>
   <time name="total">    4.26    4.27</time>
   <energy>
    <i name="e_fr_energy">   -136.72645823 </i>
    <i name="e_wo_entrp">   -136.63863393 </i>
    <i name="e_0_energy">   -136.68254608 </i>
   </energy>
  </scstep>
  <scstep>
   <time name="dav">    3.65    3.65</time>
   <time name="total">    4.01    4.01</time>
   <energy>
    <i name="e_fr_energy">   -136.55715954 </i>
    <i name="e_wo_entrp">   -136.45960253 </i>
    <i name="e_0_energy">   -136.50838103 </i>
   </energy>
  </scstep>
  <scstep>
   <time name="dav">    3.69    3.70</time>
   <time name="total">    4.05    4.06</time>
   <energy>
    <i name="e_fr_energy">   -136.34995619 </i>
    <i name="e_wo_entrp">   -136.23257213 </i>
    <i name="e_0_energy">   -136.29126416 </i>
   </energy>
  </scstep>
  <scstep>
   <time name="dav">    3.91    3.91</time>
   <time name="total">    4.27    4.27</time>
   <energy>
    <i name="e_fr_energy">   -136.74405438 </i>
    <i name="e_wo_entrp">   -136.61023164 </i>
    <i name="e_0_energy">   -136.67714301 </i>
   </energy>
  </scstep>
  <scstep>
   <time name="dav">    3.66    3.67</time>
   <time name="total">    4.02    4.03</time>
   <energy>
    <i name="e_fr_energy">   -137.31388408 </i>
    <i name="e_wo_entrp">   -137.19464415 </i>
    <i name="e_0_energy">   -137.25426411 </i>
   </energy>
  </scstep>
  <scstep>
   <time name="dav">    3.70    3.71</time>
   <time name="total">    4.05    4.09</time>
   <energy>
    <i name="e_fr_energy">   -138.44650778 </i>
    <i name="e_wo_entrp">   -138.32635383 </i>
    <i name="e_0_energy">   -138.38643081 </i>
   </energy>
  </scstep>
  <scstep>
   <time name="dav">    3.73    3.74</time>
   <time name="total">    4.10    4.11</time>
   <energy>
    <i name="e_fr_energy">   -139.83480659 </i>
    <i name="e_wo_entrp">   -139.73675292 </i>
    <i name="e_0_energy">   -139.78577975 </i>
   </energy>
  </scstep>
  <scstep>
   <time name="dav">    4.00    4.01</time>
   <time name="total">    4.37    4.38</time>
   <energy>
    <i name="e_fr_energy">   -139.79145121 </i>
    <i name="e_wo_entrp">   -139.70055875 </i>
    <i name="e_0_energy">   -139.74600498 </i>
   </energy>
  </scstep>
  <scstep>
   <time name="dav">    3.60    3.62</time>
   <time name="total">    3.96    3.98</time>
   <energy>
    <i name="e_fr_energy">   -139.34122955 </i>
    <i name="e_wo_entrp">   -139.24648761 </i>
    <i name="e_0_energy">   -139.29385858 </i>
   </energy>
  </scstep>
  <scstep>
   <time name="dav">    3.43    3.44</time>
   <time name="total">    3.79    3.81</time>
   <energy>
    <i name="e_fr_energy">   -141.61191452 </i>
    <i name="e_wo_entrp">   -141.52822717 </i>
    <i name="e_0_energy">   -141.57007085 </i>
   </energy>
  </scstep>
  <scstep>
   <time name="dav">    3.72    3.73</time>
   <time name="total">    4.08    4.10</time>
   <energy>
    <i name="e_fr_energy">   -142.91006833 </i>
    <i name="e_wo_entrp">   -142.81867431 </i>
    <i name="e_0_energy">   -142.86437132 </i>
   </energy>
  </scstep>
  <scstep>
   <time name="dav">    3.45    3.47</time>
   <time name="total">    3.82    3.83</time>
   <energy>
    <i name="e_fr_energy">   -146.88660743 </i>
    <i name="e_wo_entrp">   -146.79242833 </i>
    <i name="e_0_energy">   -146.83951788 </i>
   </energy>
  </scstep>
  <scstep>
   <time name="dav">    3.50    3.51</time>
   <time name="total">    3.86    3.87</time>
   <energy>
    <i name="e_fr_energy">   -153.66836952 </i>
    <i name="e_wo_entrp">   -153.56391884 </i>
    <i name="e_0_energy">   -153.61614418 </i>
   </energy>
  </scstep>
  <scstep>
   <time name="dav">    4.38    4.39</time>
   <time name="total">    4.74    4.75</time>
   <energy>
    <i name="e_fr_energy">   -155.50261748 </i>
    <i name="e_wo_entrp">   -155.37966622 </i>
    <i name="e_0_energy">   -155.44114185 </i>
   </energy>
  </scstep>
  <scstep>
   <time name="dav">    3.74    3.75</time>
   <time name="total">    4.10    4.11</time>
   <energy>
    <i name="e_fr_energy">   -156.54044190 </i>
    <i name="e_wo_entrp">   -156.41590153 </i>
    <i name="e_0_energy">   -156.47817172 </i>
   </energy>
  </scstep>
  <scstep>
   <time name="dav">    4.43    4.43</time>
   <time name="total">    4.79    4.80</time>
   <energy>
    <i name="e_fr_energy">   -156.53516334 </i>
    <i name="e_wo_entrp">   -156.41179045 </i>
    <i name="e_0_energy">   -156.47347690 </i>
   </energy>
  </scstep>
  <scstep>
   <time name="dav">    3.93    3.94</time>
   <time name="total">    4.29    4.31</time>
   <energy>
    <i name="e_fr_energy">   -156.47012163 </i>
    <i name="e_wo_entrp">   -156.33344280 </i>
    <i name="e_0_energy">   -156.40178221 </i>
   </energy>
  </scstep>
  <scstep>
   <time name="dav">    3.64    3.65</time>
   <time name="total">    4.01    4.02</time>
   <energy>
    <i name="e_fr_energy">   -157.66514825 </i>
    <i name="e_wo_entrp">   -157.56543726 </i>
    <i name="e_0_energy">   -157.61529276 </i>
   </energy>
  </scstep>
  <scstep>
   <time name="dav">    3.83    3.85</time>
   <time name="total">    4.19    4.21</time>
   <energy>
    <i name="e_fr_energy">   -157.49244059 </i>
    <i name="e_wo_entrp">   -157.38614390 </i>
    <i name="e_0_energy">   -157.43929224 </i>
   </energy>
  </scstep>
  <scstep>
   <time name="dav">    3.55    3.55</time>
   <time name="total">    3.90    3.91</time>
   <energy>
    <i name="e_fr_energy">   -156.96441580 </i>
    <i name="e_wo_entrp">   -156.86333929 </i>
    <i name="e_0_energy">   -156.91387754 </i>
   </energy>
  </scstep>
  <scstep>
   <time name="dav">    3.74    3.74</time>
   <time name="total">    4.09    4.10</time>
   <energy>
    <i name="e_fr_energy">   -156.89006145 </i>
    <i name="e_wo_entrp">   -156.76781590 </i>
    <i name="e_0_energy">   -156.82893868 </i>
   </energy>
  </scstep>
  <scstep>
   <time name="dav">    3.68    3.69</time>
   <time name="total">    4.05    4.06</time>
   <energy>
    <i name="e_fr_energy">   -157.31418130 </i>
    <i name="e_wo_entrp">   -157.18419460 </i>
    <i name="e_0_energy">   -157.24918795 </i>
   </energy>
  </scstep>
  <scstep>
   <time name="dav">    3.44    3.45</time>
   <time name="total">    3.81    3.82</time>
   <energy>
    <i name="e_fr_energy">   -155.50561060 </i>
    <i name="e_wo_entrp">   -155.38240508 </i>
    <i name="e_0_energy">   -155.44400784 </i>
   </energy>
  </scstep>
  <scstep>
   <time name="dav">    3.56    3.56</time>
   <time name="total">    3.92    3.93</time>
   <energy>
    <i name="e_fr_energy">   -148.30694263 </i>
    <i name="e_wo_entrp">   -148.23517350 </i>
    <i name="e_0_energy">   -148.27105807 </i>
   </energy>
  </scstep>
  <scstep>
   <time name="dav">    3.76    3.76</time>
   <time name="total">    4.11    4.12</time>
   <energy>
    <i name="e_fr_energy">   -152.98878272 </i>
    <i name="e_wo_entrp">   -152.95919464 </i>
    <i name="e_0_energy">   -152.97398868 </i>
   </energy>
  </scstep>
  <scstep>
   <time name="dav">    3.91    3.92</time>
   <time name="total">    4.27    4.28</time>
   <energy>
    <i name="e_fr_energy">   -155.13684984 </i>
    <i name="e_wo_entrp">   -155.10274195 </i>
    <i name="e_0_energy">   -155.11979589 </i>
   </energy>
  </scstep>
  <scstep>
   <time name="dav">    3.80    3.81</time>
   <time name="total">    4.16    4.18</time>
   <energy>
    <i name="e_fr_energy">   -155.41092509 </i>
    <i name="e_wo_entrp">   -155.37773558 </i>
    <i name="e_0_energy">   -155.39433034 </i>
   </energy>
  </scstep>
  <scstep>
   <time name="dav">    3.88    3.89</time>
   <time name="total">    4.25    4.26</time>
   <energy>
    <i name="e_fr_energy">   -152.89016761 </i>
    <i name="e_wo_entrp">   -152.85887248 </i>
    <i name="e_0_energy">   -152.87452004 </i>
   </energy>
  </scstep>
  <scstep>
   <time name="dav">    3.78    3.78</time>
   <time name="total">    4.14    4.15</time>
   <energy>
    <i name="e_fr_energy">   -196.71712615 </i>
    <i name="e_wo_entrp">   -196.68816555 </i>
    <i name="e_0_energy">   -196.70264585 </i>
   </energy>
  </scstep>
  <scstep>
   <time name="dav">    3.66    3.68</time>
   <time name="total">    4.03    4.05</time>
   <energy>
    <i name="e_fr_energy">   -200.09657246 </i>
    <i name="e_wo_entrp">   -200.07985098 </i>
    <i name="e_0_energy">   -200.08821172 </i>
   </energy>
  </scstep>
  <scstep>
   <time name="dav">    3.94    4.00</time>
   <time name="total">    4.30    4.36</time>
   <energy>
    <i name="e_fr_energy">   -220.38808432 </i>
    <i name="e_wo_entrp">   -220.34443768 </i>
    <i name="e_0_energy">   -220.36626100 </i>
   </energy>
  </scstep>
  <scstep>
   <time name="dav">    3.96    3.98</time>
   <time name="total">    4.33    4.34</time>
   <energy>
    <i name="e_fr_energy">   -199.26807342 </i>
    <i name="e_wo_entrp">   -199.23476890 </i>
    <i name="e_0_energy">   -199.25142116 </i>
   </energy>
  </scstep>
  <scstep>
   <time name="dav">    3.66    3.67</time>
   <time name="total">    4.03    4.04</time>
   <energy>
    <i name="e_fr_energy">   -195.61331462 </i>
    <i name="e_wo_entrp">   -195.59575814 </i>
    <i name="e_0_energy">   -195.60453638 </i>
   </energy>
  </scstep>
  <scstep>
   <time name="dav">    3.93    3.95</time>
   <time name="total">    4.28    4.30</time>
   <energy>
    <i name="e_fr_energy">   -252.19584232 </i>
    <i name="e_wo_entrp">   -252.16786626 </i>
    <i name="e_0_energy">   -252.18185429 </i>
   </energy>
  </scstep>
  <scstep>
   <time name="dav">    4.08    4.09</time>
   <time name="total">    4.45    4.47</time>
   <energy>
    <i name="e_fr_energy">   -178.70256700 </i>
    <i name="e_wo_entrp">   -178.65741863 </i>
    <i name="e_0_energy">   -178.67999282 </i>
   </energy>
  </scstep>
  <scstep>
   <time name="dav">    3.80    3.81</time>
   <time name="total">    4.15    4.17</time>
   <energy>
    <i name="e_fr_energy">   -169.76333039 </i>
    <i name="e_wo_entrp">   -169.73256507 </i>
    <i name="e_0_energy">   -169.74794773 </i>
   </energy>
  </scstep>
  <scstep>
   <time name="dav">    3.86    3.88</time>
   <time name="total">    4.22    4.24</time>
   <energy>
    <i name="e_fr_energy">   -159.14005858 </i>
    <i name="e_wo_entrp">   -159.08908560 </i>
    <i name="e_0_energy">   -159.11457209 </i>
   </energy>
  </scstep>
  <scstep>
   <time name="dav">    3.64    3.65</time>
   <time name="total">    4.00    4.01</time>
   <energy>
    <i name="e_fr_energy">   -159.09409399 </i>
    <i name="e_wo_entrp">   -159.04310064 </i>
    <i name="e_0_energy">   -159.06859731 </i>
   </energy>
  </scstep>
  <scstep>
   <time name="dav">    4.02    4.03</time>
   <time name="total">    4.39    4.40</time>
   <energy>
    <i name="e_fr_energy">   -154.84671580 </i>
    <i name="e_wo_entrp">   -154.83751148 </i>
    <i name="e_0_energy">   -154.84211364 </i>
   </energy>
  </scstep>
  <scstep>
   <time name="dav">    3.74    3.76</time>
   <time name="total">    4.11    4.13</time>
   <energy>
    <i name="e_fr_energy">   -154.30702310 </i>
    <i name="e_wo_entrp">   -154.29933845 </i>
    <i name="e_0_energy">   -154.30318078 </i>
   </energy>
  </scstep>
  <scstep>
   <time name="dav">    3.60    3.61</time>
   <time name="total">    3.97    3.98</time>
   <energy>
    <i name="e_fr_energy">   -156.14700309 </i>
    <i name="e_wo_entrp">   -156.09491378 </i>
    <i name="e_0_energy">   -156.12095843 </i>
   </energy>
  </scstep>
  <scstep>
   <time name="dav">    3.76    3.77</time>
   <time name="total">    4.13    4.14</time>
   <energy>
    <i name="e_fr_energy">   -163.60149330 </i>
    <i name="e_wo_entrp">   -163.55901780 </i>
    <i name="e_0_energy">   -163.58025555 </i>
   </energy>
  </scstep>
  <scstep>
   <time name="dav">    4.09    4.10</time>
   <time name="total">    4.45    4.47</time>
   <energy>
    <i name="e_fr_energy">   -166.50385256 </i>
    <i name="e_wo_entrp">   -166.45742050 </i>
    <i name="e_0_energy">   -166.48063653 </i>
   </energy>
  </scstep>
  <scstep>
   <time name="dav">    3.58    3.59</time>
   <time name="total">    3.94    3.95</time>
   <energy>
    <i name="e_fr_energy">   -166.60214676 </i>
    <i name="e_wo_entrp">   -166.56537692 </i>
    <i name="e_0_energy">   -166.58376184 </i>
   </energy>
  </scstep>
  <scstep>
   <time name="dav">    3.65    3.65</time>
   <time name="total">    4.02    4.03</time>
   <energy>
    <i name="e_fr_energy">   -166.80703777 </i>
    <i name="e_wo_entrp">   -166.77020009 </i>
    <i name="e_0_energy">   -166.78861893 </i>
   </energy>
  </scstep>
  <scstep>
   <time name="dav">    4.68    4.69</time>
   <time name="total">    5.05    5.06</time>
   <energy>
    <i name="e_fr_energy">   -166.74102083 </i>
    <i name="e_wo_entrp">   -166.70408145 </i>
    <i name="e_0_energy">   -166.72255114 </i>
   </energy>
  </scstep>
  <scstep>
   <time name="dav">    3.71    3.72</time>
   <time name="total">    4.08    4.10</time>
   <energy>
    <i name="e_fr_energy">   -165.56450429 </i>
    <i name="e_wo_entrp">   -165.52545331 </i>
    <i name="e_0_energy">   -165.54497880 </i>
   </energy>
  </scstep>
  <scstep>
   <time name="dav">    4.49    4.51</time>
   <time name="total">    4.86    4.88</time>
   <energy>
    <i name="e_fr_energy">   -142.38359813 </i>
    <i name="e_wo_entrp">   -142.35330492 </i>
    <i name="e_0_energy">   -142.36845152 </i>
   </energy>
  </scstep>
  <scstep>
   <time name="dav">    3.70    3.70</time>
   <time name="total">    4.05    4.05</time>
   <energy>
    <i name="e_fr_energy">   -139.57707562 </i>
    <i name="e_wo_entrp">   -139.52693314 </i>
    <i name="e_0_energy">   -139.55200438 </i>
   </energy>
  </scstep>
  <scstep>
   <time name="dav">    3.75    3.76</time>
   <time name="total">    4.10    4.12</time>
   <energy>
    <i name="e_fr_energy">   -138.71754466 </i>
    <i name="e_wo_entrp">   -138.64690771 </i>
    <i name="e_0_energy">   -138.68222619 </i>
   </energy>
  </scstep>
  <scstep>
   <time name="dav">    3.96    3.97</time>
   <time name="total">    4.31    4.32</time>
   <energy>
    <i name="e_fr_energy">   -138.24816287 </i>
    <i name="e_wo_entrp">   -138.17757050 </i>
    <i name="e_0_energy">   -138.21286668 </i>
   </energy>
  </scstep>
  <scstep>
   <time name="dav">    3.82    3.83</time>
   <time name="total">    4.18    4.19</time>
   <energy>
    <i name="e_fr_energy">   -139.66199008 </i>
    <i name="e_wo_entrp">   -139.60485253 </i>
    <i name="e_0_energy">   -139.63342131 </i>
   </energy>
  </scstep>
  <scstep>
   <time name="dav">    3.68    3.69</time>
   <time name="total">    3.80    3.81</time>
   <energy>
    <i name="alphaZ">    480.28159767 </i>
    <i name="ewald"> 274036.36663083 </i>
    <i name="hartreedc">-292338.89439119 </i>
    <i name="XCdc">     68.83752201 </i>
    <i name="pawpsdc">  20920.34151597 </i>
    <i name="pawaedc"> -20266.39028075 </i>
    <i name="eentropy">     -0.05683306 </i>
    <i name="bandstr">   -518.82749695 </i>
    <i name="atom">  17479.66102378 </i>
    <i name="e_fr_energy">   -138.68071171 </i>
    <i name="e_wo_entrp">   -138.62387864 </i>
    <i name="e_0_energy">   -138.65229517 </i>
   </energy>
  </scstep>
  <structure>
   <crystal>
    <varray name="basis" >
     <v>       5.63719400       0.00000000       0.00000000 </v>
     <v>      -2.81859700       4.88195300       0.00000000 </v>
     <v>       0.00000000       0.00000000      41.42474600 </v>
    </varray>
    <i name="volume">   1140.03039171 </i>
    <varray name="rec_basis" >
     <v>       0.17739322       0.10241803      -0.00000000 </v>
     <v>       0.00000000       0.20483606       0.00000000 </v>
     <v>       0.00000000      -0.00000000       0.02414016 </v>
    </varray>
   </crystal>
   <varray name="positions" >
    <v>       0.33333300       0.16666700       0.36111100 </v>
    <v>       0.33333300       0.66666700       0.36111100 </v>
    <v>       0.83333300       0.16666700       0.36111100 </v>
    <v>       0.83333300       0.66666700       0.36111100 </v>
    <v>       0.00000000       0.00000000       0.41666700 </v>
    <v>       0.00000000       0.50000000       0.41666700 </v>
    <v>       0.50000000       0.00000000       0.41666700 </v>
    <v>       0.50000000       0.50000000       0.41666700 </v>
    <v>       0.16666700       0.33333300       0.47222200 </v>
    <v>       0.16666700       0.83333300       0.47222200 </v>
    <v>       0.66666700       0.33333300       0.47222200 </v>
    <v>       0.66666700       0.83333300       0.47222200 </v>
    <v>       0.33328587       0.16664388       0.52771411 </v>
    <v>       0.33332160       0.66666139       0.52771996 </v>
    <v>       0.83336376       0.16665500       0.52770830 </v>
    <v>       0.83336152       0.66670796       0.52771395 </v>
    <v>       0.99995210       0.00006047       0.58238269 </v>
    <v>       0.99984561       0.49983454       0.58241056 </v>
    <v>       0.50015256       0.00014858       0.58242280 </v>
    <v>       0.50003461       0.49992319       0.58242165 </v>
    <v>       0.16668438       0.33335920       0.64033584 </v>
    <v>       0.16669423       0.83332913       0.64037668 </v>
    <v>       0.66665173       0.33332014       0.64047728 </v>
    <v>       0.66662826       0.83332011       0.64038125 </v>
   </varray>
  </structure>
  <varray name="forces" >
   <v>       0.01952683      -0.04480822       0.30659719 </v>
   <v>       0.01215345       0.04433312       0.40318665 </v>
   <v>      -0.02792646      -0.06125484       0.56232253 </v>
   <v>      -0.01443455       0.02820757       0.07573390 </v>
   <v>      -0.01712391       0.02175480      -0.64398145 </v>
   <v>       0.00970235      -0.00290234      -0.72129122 </v>
   <v>       0.02200064      -0.00690132      -0.74200342 </v>
   <v>      -0.02379393       0.01050775      -0.60032188 </v>
   <v>       0.00780039      -0.01457514      -0.52888818 </v>
   <v>       0.03213811       0.04114775      -0.64091620 </v>
   <v>       0.00078171      -0.04171512      -0.57575763 </v>
   <v>      -0.00046328       0.03197201      -0.62603798 </v>
   <v>      -0.00812999       0.04629686      -0.07553937 </v>
   <v>       0.00648139      -0.03720171      -0.14186554 </v>
   <v>       0.00367789       0.04072609      -0.16013379 </v>
   <v>      -0.00668436      -0.02846047      -0.07623586 </v>
   <v>       0.01172841       0.01979965       0.64620602 </v>
   <v>      -0.01991639       0.00256599       0.52308473 </v>
   <v>      -0.02044984       0.03525736       0.60481260 </v>
   <v>       0.01910190      -0.04368229       0.57412392 </v>
   <v>      -0.02305124       0.01731427       0.56185013 </v>
   <v>      -0.01546745      -0.01880948       0.40208297 </v>
   <v>       0.01177001       0.03290343       0.48128178 </v>
   <v>       0.02057829      -0.07247574       0.39169011 </v>
  </varray>
  <energy>
   <i name="e_fr_energy">   -138.68071171 </i>
   <i name="e_wo_entrp">   -138.62387864 </i>
   <i name="e_0_energy">   -138.65229517 </i>
  </energy>
  <time name="totalsc">  338.56  339.57</time>
 </calculation>
 <calculation>
  <scstep>
   <time name="dav">    3.56    3.58</time>
   <time name="total">    3.91    3.93</time>
   <energy>
    <i name="alphaZ">    480.28159767 </i>
    <i name="ewald"> 273371.17872248 </i>
    <i name="hartreedc">-291431.41623835 </i>
    <i name="XCdc">     68.52585511 </i>
    <i name="pawpsdc">  20732.39395126 </i>
    <i name="pawaedc"> -20078.38324588 </i>
    <i name="eentropy">     -0.08325173 </i>
    <i name="bandstr">   -757.20495906 </i>
    <i name="atom">  17479.66102378 </i>
    <i name="e_fr_energy">   -135.04654473 </i>
    <i name="e_wo_entrp">   -134.96329300 </i>
    <i name="e_0_energy">   -135.00491887 </i>
   </energy>
  </scstep>
  <scstep>
   <time name="dav">    5.76    5.78</time>
   <time name="total">    6.10    6.12</time>
   <energy>
    <i name="e_fr_energy">   -663.74141163 </i>
    <i name="e_wo_entrp">   -663.71202871 </i>
    <i name="e_0_energy">   -663.72672017 </i>
   </energy>
  </scstep>
  <scstep>
   <time name="dav">    4.41    4.42</time>
   <time name="total">    4.77    4.78</time>
   <energy>
    <i name="e_fr_energy">   -338.11434865 </i>
    <i name="e_wo_entrp">   -338.06727601 </i>
    <i name="e_0_energy">   -338.09081233 </i>
   </energy>
  </scstep>
  <scstep>
   <time name="dav">    4.53    4.57</time>
   <time name="total">    4.88    4.93</time>
   <energy>
    <i name="e_fr_energy">   -154.49759604 </i>
    <i name="e_wo_entrp">   -154.46813384 </i>
    <i name="e_0_energy">   -154.48286494 </i>
   </energy>
  </scstep>
  <scstep>
   <time name="dav">    3.91    3.93</time>
   <time name="total">    4.28    4.29</time>
   <energy>
    <i name="e_fr_energy">   -151.61943572 </i>
    <i name="e_wo_entrp">   -151.59134931 </i>
    <i name="e_0_energy">   -151.60539251 </i>
   </energy>
  </scstep>
  <scstep>
   <time name="dav">    4.04    4.06</time>
   <time name="total">    4.39    4.41</time>
   <energy>
    <i name="e_fr_energy">   -152.23343870 </i>
    <i name="e_wo_entrp">   -152.20436315 </i>
    <i name="e_0_energy">   -152.21890092 </i>
   </energy>
  </scstep>
  <scstep>
   <time name="dav">    4.06    4.07</time>
   <time name="total">    4.40    4.41</time>
   <energy>
    <i name="e_fr_energy">   -155.33179870 </i>
    <i name="e_wo_entrp">   -155.29504330 </i>
    <i name="e_0_energy">   -155.31342100 </i>
   </energy>
  </scstep>
  <scstep>
   <time name="dav">    3.98    4.00</time>
   <time name="total">    4.34    4.36</time>
   <energy>
    <i name="e_fr_energy">   -158.08766797 </i>
    <i name="e_wo_entrp">   -158.07294548 </i>
    <i name="e_0_energy">   -158.08030672 </i>
   </energy>
  </scstep>
  <scstep>
   <time name="dav">    4.15    4.16</time>
   <time name="total">    4.51    4.52</time>
   <energy>
    <i name="e_fr_energy">   -169.98719925 </i>
    <i name="e_wo_entrp">   -169.95040107 </i>
    <i name="e_0_energy">   -169.96880016 </i>
   </energy>
  </scstep>
  <scstep>
   <time name="dav">    4.26    4.28</time>
   <time name="total">    4.62    4.64</time>
   <energy>
    <i name="e_fr_energy">   -181.75030959 </i>
    <i name="e_wo_entrp">   -181.72239233 </i>
    <i name="e_0_energy">   -181.73635096 </i>
   </energy>
  </scstep>
  <scstep>
   <time name="dav">    3.87    3.88</time>
   <time name="total">    4.21    4.22</time>
   <energy>
    <i name="e_fr_energy">   -181.40595494 </i>
    <i name="e_wo_entrp">   -181.37279034 </i>
    <i name="e_0_energy">   -181.38937264 </i>
   </energy>
  </scstep>
  <scstep>
   <time name="dav">    3.77    3.79</time>
   <time name="total">    4.12    4.13</time>
   <energy>
    <i name="e_fr_energy">   -176.51615252 </i>
    <i name="e_wo_entrp">   -176.48282141 </i>
    <i name="e_0_energy">   -176.49948696 </i>
   </energy>
  </scstep>
  <scstep>
   <time name="dav">    3.86    3.88</time>
   <time name="total">    4.28    4.30</time>
   <energy>
    <i name="e_fr_energy">   -152.38614331 </i>
    <i name="e_wo_entrp">   -152.36647388 </i>
    <i name="e_0_energy">   -152.37630860 </i>
   </energy>
  </scstep>
  <scstep>
   <time name="dav">    4.00    4.02</time>
   <time name="total">    4.39    4.41</time>
   <energy>
    <i name="e_fr_energy">   -143.43089976 </i>
    <i name="e_wo_entrp">   -143.37300605 </i>
    <i name="e_0_energy">   -143.40195291 </i>
   </energy>
  </scstep>
  <scstep>
   <time name="dav">    3.66    3.68</time>
   <time name="total">    4.02    4.03</time>
   <energy>
    <i name="e_fr_energy">   -135.67784526 </i>
    <i name="e_wo_entrp">   -135.60234085 </i>
    <i name="e_0_energy">   -135.64009306 </i>
   </energy>
  </scstep>
  <scstep>
   <time name="dav">    3.91    3.92</time>
   <time name="total">    4.25    4.26</time>
   <energy>
    <i name="e_fr_energy">   -142.81378529 </i>
    <i name="e_wo_entrp">   -142.75585724 </i>
    <i name="e_0_energy">   -142.78482127 </i>
   </energy>
  </scstep>
  <scstep>
   <time name="dav">    4.21    4.23</time>
   <time name="total">    4.55    4.57</time>
   <energy>
    <i name="e_fr_energy">   -159.09353803 </i>
    <i name="e_wo_entrp">   -159.01338177 </i>
    <i name="e_0_energy">   -159.05345990 </i>
   </energy>
  </scstep>
  <scstep>
   <time name="dav">    4.10    4.12</time>
   <time name="total">    4.45    4.47</time>
   <energy>
    <i name="e_fr_energy">   -135.67852217 </i>
    <i name="e_wo_entrp">   -135.60040766 </i>
    <i name="e_0_energy">   -135.63946491 </i>
   </energy>
  </scstep>
  <scstep>
   <time name="dav">    3.97    3.98</time>
   <time name="total">    4.32    4.34</time>
   <energy>
    <i name="e_fr_energy">   -139.59916958 </i>
    <i name="e_wo_entrp">   -139.53236919 </i>
    <i name="e_0_energy">   -139.56576939 </i>
   </energy>
  </scstep>
  <scstep>
   <time name="dav">    4.19    4.21</time>
   <time name="total">    4.52    4.54</time>
   <energy>
    <i name="e_fr_energy">   -146.76313034 </i>
    <i name="e_wo_entrp">   -146.73106426 </i>
    <i name="e_0_energy">   -146.74709730 </i>
   </energy>
  </scstep>
  <scstep>
   <time name="dav">    3.91    3.93</time>
   <time name="total">    4.24    4.26</time>
   <energy>
    <i name="e_fr_energy">   -144.97969795 </i>
    <i name="e_wo_entrp">   -144.92365323 </i>
    <i name="e_0_energy">   -144.95167559 </i>
   </energy>
  </scstep>
  <scstep>
   <time name="dav">    3.74    3.76</time>
   <time name="total">    4.08    4.10</time>
   <energy>
    <i name="e_fr_energy">   -143.43506064 </i>
    <i name="e_wo_entrp">   -143.40020021 </i>
    <i name="e_0_energy">   -143.41763042 </i>
   </energy>
  </scstep>
  <scstep>
   <time name="dav">    3.80    3.81</time>
   <time name="total">    4.13    4.15</time>
   <energy>
    <i name="e_fr_energy">   -148.87068968 </i>
    <i name="e_wo_entrp">   -148.80454742 </i>
    <i name="e_0_energy">   -148.83761855 </i>
   </energy>
  </scstep>
  <scstep>
   <time name="dav">    3.90    3.92</time>
   <time name="total">    4.24    4.27</time>
   <energy>
    <i name="e_fr_energy">   -147.21203231 </i>
    <i name="e_wo_entrp">   -147.15060848 </i>
    <i name="e_0_energy">   -147.18132039 </i>
   </energy>
  </scstep>
  <scstep>
   <time name="dav">    3.90    3.92</time>
   <time name="total">    4.24    4.26</time>
   <energy>
    <i name="e_fr_energy">   -142.78027642 </i>
    <i name="e_wo_entrp">   -142.74368929 </i>
    <i name="e_0_energy">   -142.76198285 </i>
   </energy>
  </scstep>
  <scstep>
   <time name="dav">    4.08    4.10</time>
   <time name="total">    4.42    4.44</time>
   <energy>
    <i name="e_fr_energy">   -136.86714081 </i>
    <i name="e_wo_entrp">   -136.78743491 </i>
    <i name="e_0_energy">   -136.82728786 </i>
   </energy>
  </scstep>
  <scstep>
   <time name="dav">    3.80    3.81</time>
   <time name="total">    4.14    4.16</time>
   <energy>
    <i name="e_fr_energy">   -134.24494526 </i>
    <i name="e_wo_entrp">   -134.14941564 </i>
    <i name="e_0_energy">   -134.19718045 </i>
   </energy>
  </scstep>
  <scstep>
   <time name="dav">    4.01    4.02</time>
   <time name="total">    4.35    4.36</time>
   <energy>
    <i name="e_fr_energy">   -132.64428422 </i>
    <i name="e_wo_entrp">   -132.55613344 </i>
    <i name="e_0_energy">   -132.60020883 </i>
   </energy>
  </scstep>
  <scstep>
   <time name="dav">    4.00    4.01</time>
   <time name="total">    4.36    4.37</time>
   <energy>
    <i name="e_fr_energy">   -132.25160654 </i>
    <i name="e_wo_entrp">   -132.15241178 </i>
    <i name="e_0_energy">   -132.20200916 </i>
   </energy>
  </scstep>
  <scstep>
   <time name="dav">    3.96    3.97</time>
   <time name="total">    4.31    4.33</time>
   <energy>
    <i name="e_fr_energy">   -132.05278790 </i>
    <i name="e_wo_entrp">   -131.95091154 </i>
    <i name="e_0_energy">   -132.00184972 </i>
   </energy>
  </scstep>
  <scstep>
   <time name="dav">    3.78    3.79</time>
   <time name="total">    4.13    4.14</time>
   <energy>
    <i name="e_fr_energy">   -132.01030639 </i>
    <i name="e_wo_entrp">   -131.91176197 </i>
    <i name="e_0_energy">   -131.96103418 </i>
   </energy>
  </scstep>
  <scstep>
   <time name="dav">    3.83    3.83</time>
   <time name="total">    4.16    4.17</time>
   <energy>
    <i name="e_fr_energy">   -131.63315030 </i>
    <i name="e_wo_entrp">   -131.52822353 </i>
    <i name="e_0_energy">   -131.58068692 </i>
   </energy>
  </scstep>
  <scstep>
   <time name="dav">    3.66    3.67</time>
   <time name="total">    4.00    4.01</time>
   <energy>
    <i name="e_fr_energy">   -131.18847966 </i>
    <i name="e_wo_entrp">   -131.06975568 </i>
    <i name="e_0_energy">   -131.12911767 </i>
   </energy>
  </scstep>
  <scstep>
   <time name="dav">    3.66    3.66</time>
   <time name="total">    4.00    4.01</time>
   <energy>
    <i name="e_fr_energy">   -131.15745645 </i>
    <i name="e_wo_entrp">   -131.03905935 </i>
    <i name="e_0_energy">   -131.09825790 </i>
   </energy>
  </scstep>
  <scstep>
   <time name="dav">    3.62    3.63</time>
   <time name="total">    3.97    3.98</time>
   <energy>
    <i name="e_fr_energy">   -130.68265463 </i>
    <i name="e_wo_entrp">   -130.56270695 </i>
    <i name="e_0_energy">   -130.62268079 </i>
   </energy>
  </scstep>
  <scstep>
   <time name="dav">    3.75    3.76</time>
   <time name="total">    4.10    4.11</time>
   <energy>
    <i name="e_fr_energy">   -130.14156764 </i>
    <i name="e_wo_entrp">   -130.01726685 </i>
    <i name="e_0_energy">   -130.07941724 </i>
   </energy>
  </scstep>
  <scstep>
   <time name="dav">    3.80    3.81</time>
   <time name="total">    4.15    4.16</time>
   <energy>
    <i name="e_fr_energy">   -129.78638213 </i>
    <i name="e_wo_entrp">   -129.64895532 </i>
    <i name="e_0_energy">   -129.71766873 </i>
   </energy>
  </scstep>
  <scstep>
   <time name="dav">    3.68    3.68</time>
   <time name="total">    4.03    4.04</time>
   <energy>
    <i name="e_fr_energy">   -129.64323906 </i>
    <i name="e_wo_entrp">   -129.50136214 </i>
    <i name="e_0_energy">   -129.57230060 </i>
   </energy>
  </scstep>
  <scstep>
   <time name="dav">    3.78    3.79</time>
   <time name="total">    4.12    4.14</time>
   <energy>
    <i name="e_fr_energy">   -129.48353353 </i>
    <i name="e_wo_entrp">   -129.34784797 </i>
    <i name="e_0_energy">   -129.41569075 </i>
   </energy>
  </scstep>
  <scstep>
   <time name="dav">    3.60    3.61</time>
   <time name="total">    3.96    3.96</time>
   <energy>
    <i name="e_fr_energy">   -129.30240227 </i>
    <i name="e_wo_entrp">   -129.15686092 </i>
    <i name="e_0_energy">   -129.22963159 </i>
   </energy>
  </scstep>
  <scstep>
   <time name="dav">    3.73    3.74</time>
   <time name="total">    4.09    4.10</time>
   <energy>
    <i name="e_fr_energy">   -129.28021534 </i>
    <i name="e_wo_entrp">   -129.13789638 </i>
    <i name="e_0_energy">   -129.20905586 </i>
   </energy>
  </scstep>
  <scstep>
   <time name="dav">    3.66    3.67</time>
   <time name="total">    4.01    4.02</time>
   <energy>
    <i name="e_fr_energy">   -129.27476146 </i>
    <i name="e_wo_entrp">   -129.12949798 </i>
    <i name="e_0_energy">   -129.20212972 </i>
   </energy>
  </scstep>
  <scstep>
   <time name="dav">    3.71    3.71</time>
   <time name="total">    4.05    4.06</time>
   <energy>
    <i name="e_fr_energy">   -129.24856043 </i>
    <i name="e_wo_entrp">   -129.10426203 </i>
    <i name="e_0_energy">   -129.17641123 </i>
   </energy>
  </scstep>
  <scstep>
   <time name="dav">    3.50    3.50</time>
   <time name="total">    3.85    3.85</time>
   <energy>
    <i name="e_fr_energy">   -129.20948420 </i>
    <i name="e_wo_entrp">   -129.06376509 </i>
    <i name="e_0_energy">   -129.13662464 </i>
   </energy>
  </scstep>
  <scstep>
   <time name="dav">    3.67    3.67</time>
   <time name="total">    4.02    4.03</time>
   <energy>
    <i name="e_fr_energy">   -129.19937585 </i>
    <i name="e_wo_entrp">   -129.05836393 </i>
    <i name="e_0_energy">   -129.12886989 </i>
   </energy>
  </scstep>
  <scstep>
   <time name="dav">    3.68    3.70</time>
   <time name="total">    4.03    4.05</time>
   <energy>
    <i name="e_fr_energy">   -129.20405394 </i>
    <i name="e_wo_entrp">   -129.05893095 </i>
    <i name="e_0_energy">   -129.13149244 </i>
   </energy>
  </scstep>
  <scstep>
   <time name="dav">    3.61    3.62</time>
   <time name="total">    3.97    3.99</time>
   <energy>
    <i name="e_fr_energy">   -131.22910826 </i>
    <i name="e_wo_entrp">   -131.10491571 </i>
    <i name="e_0_energy">   -131.16701199 </i>
   </energy>
  </scstep>
  <scstep>
   <time name="dav">    3.71    3.72</time>
   <time name="total">    4.07    4.08</time>
   <energy>
    <i name="e_fr_energy">   -131.04692942 </i>
    <i name="e_wo_entrp">   -130.91691998 </i>
    <i name="e_0_energy">   -130.98192470 </i>
   </energy>
  </scstep>
  <scstep>
   <time name="dav">    4.10    4.11</time>
   <time name="total">    4.45    4.46</time>
   <energy>
    <i name="e_fr_energy">   -130.90492133 </i>
    <i name="e_wo_entrp">   -130.78713201 </i>
    <i name="e_0_energy">   -130.84602667 </i>
   </energy>
  </scstep>
  <scstep>
   <time name="dav">    3.73    3.74</time>
   <time name="total">    4.09    4.10</time>
   <energy>
    <i name="e_fr_energy">   -131.47594657 </i>
    <i name="e_wo_entrp">   -131.37413785 </i>
    <i name="e_0_energy">   -131.42504221 </i>
   </energy>
  </scstep>
  <scstep>
   <time name="dav">    3.53    3.54</time>
   <time name="total">    3.89    3.90</time>
   <energy>
    <i name="e_fr_energy">   -131.46506730 </i>
    <i name="e_wo_entrp">   -131.33627775 </i>
    <i name="e_0_energy">   -131.40067252 </i>
   </energy>
  </scstep>
  <scstep>
   <time name="dav">    3.84    3.85</time>
   <time name="total">    4.19    4.20</time>
   <energy>
    <i name="e_fr_energy">   -133.86371650 </i>
    <i name="e_wo_entrp">   -133.80083025 </i>
    <i name="e_0_energy">   -133.83227337 </i>
   </energy>
  </scstep>
  <scstep>
   <time name="dav">    3.68    3.70</time>
   <time name="total">    4.04    4.09</time>
   <energy>
    <i name="e_fr_energy">   -133.86249698 </i>
    <i name="e_wo_entrp">   -133.76404125 </i>
    <i name="e_0_energy">   -133.81326911 </i>
   </energy>
  </scstep>
  <scstep>
   <time name="dav">    3.68    3.69</time>
   <time name="total">    4.04    4.05</time>
   <energy>
    <i name="e_fr_energy">   -133.93737864 </i>
    <i name="e_wo_entrp">   -133.85216613 </i>
    <i name="e_0_energy">   -133.89477238 </i>
   </energy>
  </scstep>
  <scstep>
   <time name="dav">    3.83    3.84</time>
   <time name="total">    4.18    4.20</time>
   <energy>
    <i name="e_fr_energy">   -133.89527804 </i>
    <i name="e_wo_entrp">   -133.80714652 </i>
    <i name="e_0_energy">   -133.85121228 </i>
   </energy>
  </scstep>
  <scstep>
   <time name="dav">    3.77    3.78</time>
   <time name="total">    4.13    4.14</time>
   <energy>
    <i name="e_fr_energy">   -132.96713304 </i>
    <i name="e_wo_entrp">   -132.87561589 </i>
    <i name="e_0_energy">   -132.92137446 </i>
   </energy>
  </scstep>
  <scstep>
   <time name="dav">    3.56    3.57</time>
   <time name="total">    3.91    3.92</time>
   <energy>
    <i name="e_fr_energy">   -130.25969778 </i>
    <i name="e_wo_entrp">   -130.17987997 </i>
    <i name="e_0_energy">   -130.21978887 </i>
   </energy>
  </scstep>
  <scstep>
   <time name="dav">    3.59    3.60</time>
   <time name="total">    3.95    3.96</time>
   <energy>
    <i name="e_fr_energy">   -130.13447596 </i>
    <i name="e_wo_entrp">   -130.05350925 </i>
    <i name="e_0_energy">   -130.09399260 </i>
   </energy>
  </scstep>
  <scstep>
   <time name="dav">    3.65    3.66</time>
   <time name="total">    4.00    4.01</time>
   <energy>
    <i name="e_fr_energy">   -129.90576123 </i>
    <i name="e_wo_entrp">   -129.82218045 </i>
    <i name="e_0_energy">   -129.86397084 </i>
   </energy>
  </scstep>
  <scstep>
   <time name="dav">    4.28    4.30</time>
   <time name="total">    4.65    4.67</time>
   <energy>
    <i name="e_fr_energy">   -129.65831990 </i>
    <i name="e_wo_entrp">   -129.56230521 </i>
    <i name="e_0_energy">   -129.61031255 </i>
   </energy>
  </scstep>
  <scstep>
   <time name="dav">    3.64    3.65</time>
   <time name="total">    4.00    4.01</time>
   <energy>
    <i name="e_fr_energy">   -129.59878354 </i>
    <i name="e_wo_entrp">   -129.50259813 </i>
    <i name="e_0_energy">   -129.55069084 </i>
   </energy>
  </scstep>
  <scstep>
   <time name="dav">    3.68    3.68</time>
   <time name="total">    4.03    4.04</time>
   <energy>
    <i name="e_fr_energy">   -129.11340236 </i>
    <i name="e_wo_entrp">   -128.99401247 </i>
    <i name="e_0_energy">   -129.05370742 </i>
   </energy>
  </scstep>
  <scstep>
   <time name="dav">    3.61    3.62</time>
   <time name="total">    3.96    3.97</time>
   <energy>
    <i name="e_fr_energy">   -129.24607364 </i>
    <i name="e_wo_entrp">   -129.13379394 </i>
    <i name="e_0_energy">   -129.18993379 </i>
   </energy>
  </scstep>
  <scstep>
   <time name="dav">    3.74    3.75</time>
   <time name="total">    4.11    4.11</time>
   <energy>
    <i name="e_fr_energy">   -129.10571858 </i>
    <i name="e_wo_entrp">   -128.98628140 </i>
    <i name="e_0_energy">   -129.04599999 </i>
   </energy>
  </scstep>
  <scstep>
   <time name="dav">    3.75    3.76</time>
   <time name="total">    4.11    4.13</time>
   <energy>
    <i name="e_fr_energy">   -129.04072947 </i>
    <i name="e_wo_entrp">   -128.91336753 </i>
    <i name="e_0_energy">   -128.97704850 </i>
   </energy>
  </scstep>
  <scstep>
   <time name="dav">    3.80    3.81</time>
   <time name="total">    4.17    4.18</time>
   <energy>
    <i name="e_fr_energy">   -128.79564970 </i>
    <i name="e_wo_entrp">   -128.66559555 </i>
    <i name="e_0_energy">   -128.73062263 </i>
   </energy>
  </scstep>
  <scstep>
   <time name="dav">    3.59    3.60</time>
   <time name="total">    3.96    3.97</time>
   <energy>
    <i name="e_fr_energy">   -128.76366805 </i>
    <i name="e_wo_entrp">   -128.63041761 </i>
    <i name="e_0_energy">   -128.69704283 </i>
   </energy>
  </scstep>
  <scstep>
   <time name="dav">    3.67    3.68</time>
   <time name="total">    4.03    4.05</time>
   <energy>
    <i name="e_fr_energy">   -128.80284147 </i>
    <i name="e_wo_entrp">   -128.66959342 </i>
    <i name="e_0_energy">   -128.73621745 </i>
   </energy>
  </scstep>
  <scstep>
   <time name="dav">    3.59    3.60</time>
   <time name="total">    3.96    3.97</time>
   <energy>
    <i name="e_fr_energy">   -128.76829856 </i>
    <i name="e_wo_entrp">   -128.63080708 </i>
    <i name="e_0_energy">   -128.69955282 </i>
   </energy>
  </scstep>
  <scstep>
   <time name="dav">    3.71    3.71</time>
   <time name="total">    4.08    4.08</time>
   <energy>
    <i name="e_fr_energy">   -128.72627237 </i>
    <i name="e_wo_entrp">   -128.58412845 </i>
    <i name="e_0_energy">   -128.65520041 </i>
   </energy>
  </scstep>
  <scstep>
   <time name="dav">    3.97    3.98</time>
   <time name="total">    4.34    4.35</time>
   <energy>
    <i name="e_fr_energy">   -128.72268058 </i>
    <i name="e_wo_entrp">   -128.59865533 </i>
    <i name="e_0_energy">   -128.66066796 </i>
   </energy>
  </scstep>
  <scstep>
   <time name="dav">    3.72    3.73</time>
   <time name="total">    4.09    4.10</time>
   <energy>
    <i name="e_fr_energy">   -128.71292753 </i>
    <i name="e_wo_entrp">   -128.58384156 </i>
    <i name="e_0_energy">   -128.64838454 </i>
   </energy>
  </scstep>
  <scstep>
   <time name="dav">    3.62    3.63</time>
   <time name="total">    3.98    3.99</time>
   <energy>
    <i name="e_fr_energy">   -128.71952458 </i>
    <i name="e_wo_entrp">   -128.58945590 </i>
    <i name="e_0_energy">   -128.65449024 </i>
   </energy>
  </scstep>
  <scstep>
   <time name="dav">    4.25    4.25</time>
   <time name="total">    4.61    4.62</time>
   <energy>
    <i name="e_fr_energy">   -128.71787897 </i>
    <i name="e_wo_entrp">   -128.58960690 </i>
    <i name="e_0_energy">   -128.65374294 </i>
   </energy>
  </scstep>
  <scstep>
   <time name="dav">    3.59    3.60</time>
   <time name="total">    3.96    3.97</time>
   <energy>
    <i name="e_fr_energy">   -128.69113622 </i>
    <i name="e_wo_entrp">   -128.55629418 </i>
    <i name="e_0_energy">   -128.62371520 </i>
   </energy>
  </scstep>
  <scstep>
   <time name="dav">    3.84    3.85</time>
   <time name="total">    4.21    4.22</time>
   <energy>
    <i name="e_fr_energy">   -128.71747120 </i>
    <i name="e_wo_entrp">   -128.59157406 </i>
    <i name="e_0_energy">   -128.65452263 </i>
   </energy>
  </scstep>
  <scstep>
   <time name="dav">    3.67    3.68</time>
   <time name="total">    4.04    4.05</time>
   <energy>
    <i name="e_fr_energy">   -128.70186650 </i>
    <i name="e_wo_entrp">   -128.57396811 </i>
    <i name="e_0_energy">   -128.63791731 </i>
   </energy>
  </scstep>
  <scstep>
   <time name="dav">    4.32    4.33</time>
   <time name="total">    4.68    4.70</time>
   <energy>
    <i name="e_fr_energy">   -128.67287685 </i>
    <i name="e_wo_entrp">   -128.53685281 </i>
    <i name="e_0_energy">   -128.60486483 </i>
   </energy>
  </scstep>
  <scstep>
   <time name="dav">    3.53    3.54</time>
   <time name="total">    3.89    3.91</time>
   <energy>
    <i name="e_fr_energy">   -128.66878508 </i>
    <i name="e_wo_entrp">   -128.53121419 </i>
    <i name="e_0_energy">   -128.59999964 </i>
   </energy>
  </scstep>
  <scstep>
   <time name="dav">    3.73    3.73</time>
   <time name="total">    3.86    3.87</time>
   <energy>
    <i name="alphaZ">    480.28159767 </i>
    <i name="ewald"> 273371.17872248 </i>
    <i name="hartreedc">-291372.08356578 </i>
    <i name="XCdc">     66.98031156 </i>
    <i name="pawpsdc">  21168.31411556 </i>
    <i name="pawaedc"> -20526.31821860 </i>
    <i name="eentropy">     -0.13700381 </i>
    <i name="bandstr">   -796.54747126 </i>
    <i name="atom">  17479.66102378 </i>
    <i name="e_fr_energy">   -128.67048842 </i>
    <i name="e_wo_entrp">   -128.53348460 </i>
    <i name="e_0_energy">   -128.60198651 </i>
   </energy>
  </scstep>
  <structure>
   <crystal>
    <varray name="basis" >
     <v>       5.63719400       0.00000000       0.00000000 </v>
     <v>      -2.81859700       4.88195300       0.00000000 </v>
     <v>       0.00000000       0.00000000      41.42474600 </v>
    </varray>
    <i name="volume">   1140.03039171 </i>
    <varray name="rec_basis" >
     <v>       0.17739322       0.10241803      -0.00000000 </v>
     <v>       0.00000000       0.20483606       0.00000000 </v>
     <v>       0.00000000      -0.00000000       0.02414016 </v>
    </varray>
   </crystal>
   <varray name="positions" >
    <v>       0.33333300       0.16666700       0.36111100 </v>
    <v>       0.33333300       0.66666700       0.36111100 </v>
    <v>       0.83333300       0.16666700       0.36111100 </v>
    <v>       0.83333300       0.66666700       0.36111100 </v>
    <v>       0.00000000       0.00000000       0.41666700 </v>
    <v>       0.00000000       0.50000000       0.41666700 </v>
    <v>       0.50000000       0.00000000       0.41666700 </v>
    <v>       0.50000000       0.50000000       0.41666700 </v>
    <v>       0.16666700       0.33333300       0.47222200 </v>
    <v>       0.16666700       0.83333300       0.47222200 </v>
    <v>       0.66666700       0.33333300       0.47222200 </v>
    <v>       0.66666700       0.83333300       0.47222200 </v>
    <v>       0.33344504       0.16710138       0.52762614 </v>
    <v>       0.33319326       0.66629377       0.52755474 </v>
    <v>       0.83359646       0.16705745       0.52752181 </v>
    <v>       0.83316370       0.66642672       0.52762517 </v>
    <v>       0.00015030       0.00025613       0.58313526 </v>
    <v>       0.99968785       0.49985990       0.58301974 </v>
    <v>       0.50015175       0.00049699       0.58312715 </v>
    <v>       0.49998225       0.49949153       0.58309027 </v>
    <v>       0.16657266       0.33353030       0.64099016 </v>
    <v>       0.16646892       0.83314326       0.64084494 </v>
    <v>       0.66691503       0.33364528       0.64103778 </v>
    <v>       0.66644627       0.83260391       0.64083741 </v>
   </varray>
  </structure>
  <varray name="forces" >
   <v>       0.00088777      -0.00404203      -0.61975449 </v>
   <v>      -0.00151438      -0.00082070      -0.54179848 </v>
   <v>       0.00057509      -0.00110647      -0.53238125 </v>
   <v>       0.00231854      -0.00072161      -0.52752957 </v>
   <v>      -0.00563999      -0.00009870       0.36174130 </v>
   <v>       0.00138996      -0.00553704       0.36043434 </v>
   <v>       0.00619897      -0.00233680       0.36190609 </v>
   <v>      -0.00146877       0.00151414       0.35967143 </v>
   <v>       0.00642630      -0.00312577      -0.27594162 </v>
   <v>      -0.00272630       0.00223639      -0.25684683 </v>
   <v>      -0.00685976       0.00008900      -0.26032632 </v>
   <v>       0.00233904      -0.00522859      -0.24522887 </v>
   <v>       0.01957664      -0.08461637       0.25306068 </v>
   <v>      -0.01250258       0.07481967       0.32150683 </v>
   <v>      -0.01363202      -0.06800004       0.33445553 </v>
   <v>       0.01256705       0.05576226       0.23594970 </v>
   <v>      -0.00638138       0.03874244       0.11862042 </v>
   <v>      -0.02181904      -0.01641752       0.23355976 </v>
   <v>      -0.00851761       0.05731398       0.12045754 </v>
   <v>       0.02352847      -0.06162397       0.17448105 </v>
   <v>       0.01513949      -0.02500480      -0.00539609 </v>
   <v>       0.01856877       0.01776339       0.04565701 </v>
   <v>      -0.00536129      -0.04591178      -0.04874044 </v>
   <v>      -0.02309298       0.07635091       0.03244228 </v>
  </varray>
  <energy>
   <i name="e_fr_energy">   -128.67048842 </i>
   <i name="e_wo_entrp">   -128.53348460 </i>
   <i name="e_0_energy">   -128.60198651 </i>
  </energy>
  <time name="totalsc">  337.95  339.15</time>
 </calculation>
 <calculation>
  <scstep>
   <time name="dav">    3.45    3.46</time>
   <time name="total">    3.81    3.82</time>
   <energy>
    <i name="alphaZ">    480.28159767 </i>
    <i name="ewald"> 273299.60551879 </i>
    <i name="hartreedc">-291304.19918895 </i>
    <i name="XCdc">     66.96180059 </i>
    <i name="pawpsdc">  21175.64725028 </i>
    <i name="pawaedc"> -20533.55926244 </i>
    <i name="eentropy">     -0.13793496 </i>
    <i name="bandstr">   -792.92074564 </i>
    <i name="atom">  17479.66102378 </i>
    <i name="e_fr_energy">   -128.65994088 </i>
    <i name="e_wo_entrp">   -128.52200592 </i>
    <i name="e_0_energy">   -128.59097340 </i>
   </energy>
  </scstep>
  <scstep>
   <time name="dav">    4.67    4.69</time>
   <time name="total">    5.02    5.04</time>
   <energy>
    <i name="e_fr_energy">   -129.24679069 </i>
    <i name="e_wo_entrp">   -129.10100987 </i>
    <i name="e_0_energy">   -129.17390028 </i>
   </energy>
  </scstep>
  <scstep>
   <time name="dav">    4.74    4.75</time>
   <time name="total">    5.09    5.10</time>
   <energy>
    <i name="e_fr_energy">   -128.87115227 </i>
    <i name="e_wo_entrp">   -128.72211568 </i>
    <i name="e_0_energy">   -128.79663398 </i>
   </energy>
  </scstep>
  <scstep>
   <time name="dav">    4.67    4.69</time>
   <time name="total">    5.03    5.05</time>
   <energy>
    <i name="e_fr_energy">   -128.71519645 </i>
    <i name="e_wo_entrp">   -128.59402905 </i>
    <i name="e_0_energy">   -128.65461275 </i>
   </energy>
  </scstep>
  <scstep>
   <time name="dav">    4.64    4.65</time>
   <time name="total">    5.00    5.01</time>
   <energy>
    <i name="e_fr_energy">   -128.80073299 </i>
    <i name="e_wo_entrp">   -128.66719551 </i>
    <i name="e_0_energy">   -128.73396425 </i>
   </energy>
  </scstep>
  <scstep>
   <time name="dav">    3.62    3.63</time>
   <time name="total">    3.98    3.99</time>
   <energy>
    <i name="e_fr_energy">   -128.78747404 </i>
    <i name="e_wo_entrp">   -128.65501677 </i>
    <i name="e_0_energy">   -128.72124541 </i>
   </energy>
  </scstep>
  <scstep>
   <time name="dav">    5.01    5.02</time>
   <time name="total">    5.36    5.37</time>
   <energy>
[...]
        <r>  0.0307  0.0001  0.0005  0.0003  0.0003  0.0003  0.0229  0.0010  0.0001 </r>
        <r>  0.0016  0.0010  0.0000  0.0031  0.0000  0.0002  0.0018  0.0006  0.0000 </r>
        <r>  0.0016  0.0010  0.0000  0.0031  0.0000  0.0002  0.0018  0.0006  0.0000 </r>
        <r>  0.0306  0.0001  0.0005  0.0003  0.0003  0.0003  0.0229  0.0010  0.0001 </r>
        <r>  0.0180  0.0005  0.0011  0.0016  0.0004  0.0010  0.0126  0.0029  0.0001 </r>
        <r>  0.0124  0.0005  0.0010  0.0015  0.0000  0.0003  0.0108  0.0008  0.0000 </r>
        <r>  0.0123  0.0005  0.0010  0.0015  0.0000  0.0003  0.0108  0.0008  0.0000 </r>
        <r>  0.0181  0.0005  0.0012  0.0016  0.0004  0.0010  0.0126  0.0029  0.0001 </r>
        <r>  0.0177  0.0000  0.0113  0.0001  0.0003  0.0004  0.0113  0.0012  0.0001 </r>
        <r>  0.0000  0.0005  0.0005  0.0014  0.0008  0.0050  0.0003  0.0150  0.0003 </r>
        <r>  0.0000  0.0004  0.0005  0.0014  0.0008  0.0050  0.0003  0.0150  0.0003 </r>
        <r>  0.0177  0.0000  0.0112  0.0001  0.0003  0.0004  0.0114  0.0012  0.0001 </r>
        <r>  0.0037  0.0000  0.0191  0.0000  0.0000  0.0015  0.0019  0.0045  0.0000 </r>
        <r>  0.0013  0.0001  0.0008  0.0002  0.0006  0.0061  0.0001  0.0183  0.0002 </r>
        <r>  0.0013  0.0001  0.0008  0.0002  0.0006  0.0061  0.0001  0.0184  0.0002 </r>
        <r>  0.0037  0.0000  0.0192  0.0000  0.0000  0.0015  0.0019  0.0045  0.0000 </r>
       </set>
       <set comment="band 138">
        <r>  0.0040  0.0000  0.0100  0.0001  0.0007  0.0029  0.0008  0.0087  0.0002 </r>
        <r>  0.0014  0.0000  0.0119  0.0001  0.0002  0.0060  0.0007  0.0179  0.0001 </r>
        <r>  0.0015  0.0000  0.0119  0.0001  0.0002  0.0060  0.0007  0.0179  0.0001 </r>
        <r>  0.0041  0.0000  0.0101  0.0001  0.0006  0.0029  0.0008  0.0087  0.0002 </r>
        <r>  0.0037  0.0007  0.0006  0.0020  0.0011  0.0049  0.0012  0.0148  0.0004 </r>
        <r>  0.0160  0.0000  0.0092  0.0001  0.0000  0.0001  0.0133  0.0003  0.0000 </r>
        <r>  0.0160  0.0000  0.0093  0.0001  0.0000  0.0001  0.0133  0.0003  0.0000 </r>
        <r>  0.0037  0.0007  0.0006  0.0020  0.0011  0.0050  0.0012  0.0148  0.0004 </r>
        <r>  0.0016  0.0011  0.0000  0.0031  0.0000  0.0002  0.0018  0.0006  0.0000 </r>
        <r>  0.0308  0.0001  0.0005  0.0003  0.0003  0.0003  0.0229  0.0010  0.0001 </r>
        <r>  0.0305  0.0001  0.0005  0.0003  0.0003  0.0003  0.0229  0.0010  0.0001 </r>
        <r>  0.0016  0.0010  0.0000  0.0031  0.0000  0.0002  0.0018  0.0006  0.0000 </r>
        <r>  0.0124  0.0005  0.0010  0.0015  0.0000  0.0003  0.0109  0.0008  0.0000 </r>
        <r>  0.0181  0.0005  0.0012  0.0016  0.0004  0.0010  0.0126  0.0029  0.0001 </r>
        <r>  0.0180  0.0005  0.0011  0.0016  0.0004  0.0010  0.0126  0.0029  0.0001 </r>
        <r>  0.0123  0.0005  0.0010  0.0015  0.0000  0.0003  0.0108  0.0008  0.0000 </r>
        <r>  0.0000  0.0005  0.0005  0.0013  0.0008  0.0050  0.0003  0.0150  0.0003 </r>
        <r>  0.0178  0.0000  0.0112  0.0001  0.0003  0.0004  0.0114  0.0012  0.0001 </r>
        <r>  0.0177  0.0000  0.0112  0.0001  0.0003  0.0004  0.0114  0.0012  0.0001 </r>
        <r>  0.0000  0.0005  0.0005  0.0014  0.0008  0.0050  0.0003  0.0150  0.0003 </r>
        <r>  0.0013  0.0001  0.0008  0.0002  0.0006  0.0061  0.0001  0.0184  0.0002 </r>
        <r>  0.0037  0.0000  0.0191  0.0000  0.0000  0.0015  0.0019  0.0045  0.0000 </r>
        <r>  0.0038  0.0000  0.0192  0.0000  0.0000  0.0015  0.0019  0.0045  0.0000 </r>
        <r>  0.0013  0.0001  0.0008  0.0002  0.0006  0.0062  0.0001  0.0183  0.0002 </r>
       </set>
       <set comment="band 139">
        <r>  0.0284  0.0002  0.0027  0.0000  0.0304  0.0002  0.0000  0.0009  0.0104 </r>
        <r>  0.0001  0.0174  0.0000  0.0060  0.0004  0.0013  0.0000  0.0003  0.0001 </r>
        <r>  0.0001  0.0174  0.0000  0.0060  0.0004  0.0013  0.0000  0.0003  0.0001 </r>
        <r>  0.0283  0.0002  0.0027  0.0000  0.0304  0.0002  0.0000  0.0009  0.0104 </r>
        <r>  0.0000  0.0045  0.0000  0.0015  0.0001  0.0118  0.0000  0.0042  0.0001 </r>
        <r>  0.0035  0.0000  0.0074  0.0000  0.0048  0.0004  0.0004  0.0004  0.0017 </r>
        <r>  0.0035  0.0000  0.0074  0.0000  0.0048  0.0004  0.0004  0.0004  0.0017 </r>
        <r>  0.0000  0.0045  0.0000  0.0015  0.0001  0.0118  0.0000  0.0042  0.0001 </r>
        <r>  0.0122  0.0001  0.0033  0.0000  0.0148  0.0003  0.0006  0.0019  0.0048 </r>
        <r>  0.0000  0.0116  0.0000  0.0039  0.0000  0.0064  0.0000  0.0018  0.0002 </r>
        <r>  0.0001  0.0116  0.0000  0.0039  0.0000  0.0063  0.0000  0.0018  0.0002 </r>
        <r>  0.0122  0.0001  0.0033  0.0000  0.0148  0.0003  0.0006  0.0019  0.0048 </r>
        <r>  0.0126  0.0000  0.0039  0.0000  0.0145  0.0008  0.0004  0.0014  0.0050 </r>
        <r>  0.0000  0.0110  0.0000  0.0037  0.0002  0.0061  0.0000  0.0024  0.0000 </r>
        <r>  0.0001  0.0110  0.0000  0.0036  0.0002  0.0061  0.0000  0.0024  0.0000 </r>
        <r>  0.0126  0.0000  0.0039  0.0000  0.0145  0.0008  0.0004  0.0014  0.0049 </r>
        <r>  0.0000  0.0044  0.0000  0.0015  0.0000  0.0120  0.0000  0.0037  0.0002 </r>
        <r>  0.0038  0.0000  0.0076  0.0000  0.0051  0.0000  0.0004  0.0007  0.0016 </r>
        <r>  0.0038  0.0000  0.0076  0.0000  0.0051  0.0000  0.0004  0.0007  0.0016 </r>
        <r>  0.0000  0.0044  0.0000  0.0015  0.0000  0.0120  0.0000  0.0038  0.0002 </r>
        <r>  0.0339  0.0000  0.0021  0.0002  0.0395  0.0003  0.0001  0.0006  0.0129 </r>
        <r>  0.0001  0.0205  0.0000  0.0067  0.0000  0.0009  0.0000  0.0004  0.0004 </r>
        <r>  0.0001  0.0205  0.0000  0.0067  0.0000  0.0008  0.0000  0.0004  0.0004 </r>
        <r>  0.0339  0.0000  0.0022  0.0002  0.0395  0.0003  0.0001  0.0006  0.0129 </r>
       </set>
       <set comment="band 140">
        <r>  0.0001  0.0174  0.0000  0.0060  0.0004  0.0013  0.0000  0.0003  0.0001 </r>
        <r>  0.0284  0.0002  0.0027  0.0000  0.0304  0.0002  0.0000  0.0010  0.0104 </r>
        <r>  0.0284  0.0002  0.0026  0.0000  0.0304  0.0002  0.0000  0.0009  0.0104 </r>
        <r>  0.0001  0.0174  0.0000  0.0060  0.0004  0.0013  0.0000  0.0003  0.0001 </r>
        <r>  0.0035  0.0000  0.0074  0.0000  0.0048  0.0004  0.0004  0.0004  0.0017 </r>
        <r>  0.0000  0.0045  0.0000  0.0015  0.0001  0.0118  0.0000  0.0042  0.0001 </r>
        <r>  0.0000  0.0045  0.0000  0.0015  0.0001  0.0118  0.0000  0.0042  0.0001 </r>
        <r>  0.0035  0.0000  0.0074  0.0000  0.0048  0.0004  0.0004  0.0004  0.0017 </r>
        <r>  0.0000  0.0116  0.0000  0.0039  0.0000  0.0063  0.0000  0.0018  0.0002 </r>
        <r>  0.0121  0.0001  0.0033  0.0000  0.0149  0.0003  0.0006  0.0019  0.0048 </r>
        <r>  0.0123  0.0001  0.0033  0.0000  0.0148  0.0003  0.0006  0.0018  0.0048 </r>
        <r>  0.0001  0.0116  0.0000  0.0039  0.0000  0.0064  0.0000  0.0018  0.0002 </r>
        <r>  0.0001  0.0110  0.0000  0.0037  0.0002  0.0061  0.0000  0.0024  0.0000 </r>
        <r>  0.0125  0.0000  0.0039  0.0000  0.0145  0.0008  0.0004  0.0014  0.0050 </r>
        <r>  0.0126  0.0000  0.0039  0.0000  0.0145  0.0008  0.0005  0.0014  0.0050 </r>
        <r>  0.0000  0.0110  0.0000  0.0036  0.0002  0.0061  0.0000  0.0024  0.0000 </r>
        <r>  0.0038  0.0000  0.0076  0.0000  0.0051  0.0000  0.0004  0.0007  0.0016 </r>
        <r>  0.0000  0.0043  0.0000  0.0015  0.0000  0.0120  0.0000  0.0037  0.0002 </r>
        <r>  0.0000  0.0043  0.0000  0.0015  0.0000  0.0120  0.0000  0.0038  0.0002 </r>
        <r>  0.0038  0.0000  0.0076  0.0000  0.0051  0.0000  0.0004  0.0007  0.0016 </r>
        <r>  0.0001  0.0205  0.0000  0.0067  0.0000  0.0009  0.0000  0.0004  0.0004 </r>
        <r>  0.0339  0.0000  0.0022  0.0002  0.0394  0.0003  0.0001  0.0006  0.0129 </r>
        <r>  0.0338  0.0000  0.0021  0.0002  0.0394  0.0003  0.0001  0.0006  0.0129 </r>
        <r>  0.0001  0.0205  0.0000  0.0067  0.0000  0.0008  0.0000  0.0004  0.0004 </r>
       </set>
       <set comment="band 141">
        <r>  0.0234  0.0001  0.0087  0.0001  0.0098  0.0001  0.0001  0.0000  0.0034 </r>
        <r>  0.0003  0.0073  0.0001  0.0024  0.0002  0.0078  0.0000  0.0026  0.0000 </r>
        <r>  0.0003  0.0073  0.0001  0.0024  0.0002  0.0078  0.0000  0.0026  0.0000 </r>
        <r>  0.0233  0.0001  0.0088  0.0001  0.0098  0.0001  0.0001  0.0000  0.0034 </r>
        <r>  0.0004  0.0195  0.0000  0.0063  0.0001  0.0006  0.0000  0.0001  0.0004 </r>
        <r>  0.0275  0.0001  0.0006  0.0003  0.0167  0.0003  0.0028  0.0014  0.0053 </r>
        <r>  0.0275  0.0001  0.0006  0.0003  0.0167  0.0003  0.0028  0.0014  0.0053 </r>
        <r>  0.0004  0.0195  0.0000  0.0063  0.0001  0.0006  0.0000  0.0001  0.0004 </r>
        <r>  0.0049  0.0000  0.0120  0.0005  0.0030  0.0000  0.0004  0.0007  0.0007 </r>
        <r>  0.0001  0.0030  0.0002  0.0008  0.0002  0.0155  0.0000  0.0048  0.0016 </r>
        <r>  0.0001  0.0030  0.0002  0.0008  0.0002  0.0155  0.0000  0.0048  0.0016 </r>
        <r>  0.0049  0.0000  0.0119  0.0005  0.0030  0.0000  0.0004  0.0007  0.0007 </r>
        <r>  0.0083  0.0004  0.0102  0.0002  0.0045  0.0006  0.0008  0.0001  0.0020 </r>
        <r>  0.0001  0.0055  0.0001  0.0021  0.0009  0.0128  0.0000  0.0046  0.0010 </r>
        <r>  0.0001  0.0055  0.0001  0.0021  0.0009  0.0128  0.0000  0.0046  0.0010 </r>
        <r>  0.0084  0.0004  0.0101  0.0002  0.0045  0.0006  0.0008  0.0001  0.0020 </r>
        <r>  0.0005  0.0195  0.0000  0.0067  0.0005  0.0001  0.0000  0.0001  0.0000 </r>
        <r>  0.0328  0.0005  0.0002  0.0000  0.0178  0.0004  0.0026  0.0009  0.0062 </r>
        <r>  0.0328  0.0005  0.0002  0.0000  0.0178  0.0004  0.0026  0.0009  0.0062 </r>
        <r>  0.0005  0.0195  0.0000  0.0067  0.0005  0.0001  0.0000  0.0001  0.0000 </r>
        <r>  0.0256  0.0001  0.0078  0.0000  0.0116  0.0001  0.0001  0.0000  0.0037 </r>
        <r>  0.0004  0.0079  0.0001  0.0026  0.0001  0.0076  0.0000  0.0026  0.0002 </r>
        <r>  0.0004  0.0079  0.0001  0.0026  0.0001  0.0076  0.0000  0.0025  0.0002 </r>
        <r>  0.0256  0.0001  0.0079  0.0000  0.0116  0.0001  0.0001  0.0000  0.0037 </r>
       </set>
       <set comment="band 142">
        <r>  0.0003  0.0073  0.0001  0.0024  0.0002  0.0077  0.0000  0.0027  0.0000 </r>
        <r>  0.0234  0.0001  0.0086  0.0001  0.0098  0.0001  0.0001  0.0000  0.0034 </r>
        <r>  0.0233  0.0001  0.0088  0.0001  0.0098  0.0002  0.0001  0.0000  0.0034 </r>
        <r>  0.0003  0.0073  0.0001  0.0024  0.0002  0.0078  0.0000  0.0026  0.0000 </r>
        <r>  0.0275  0.0001  0.0006  0.0003  0.0167  0.0003  0.0028  0.0014  0.0053 </r>
        <r>  0.0004  0.0195  0.0000  0.0063  0.0001  0.0006  0.0000  0.0001  0.0004 </r>
        <r>  0.0004  0.0195  0.0000  0.0063  0.0001  0.0006  0.0000  0.0001  0.0004 </r>
        <r>  0.0276  0.0001  0.0006  0.0003  0.0166  0.0003  0.0028  0.0014  0.0053 </r>
        <r>  0.0001  0.0030  0.0002  0.0008  0.0002  0.0155  0.0000  0.0047  0.0016 </r>
        <r>  0.0049  0.0000  0.0121  0.0005  0.0030  0.0000  0.0004  0.0007  0.0007 </r>
        <r>  0.0050  0.0000  0.0118  0.0005  0.0030  0.0000  0.0004  0.0006  0.0007 </r>
        <r>  0.0001  0.0030  0.0002  0.0008  0.0002  0.0154  0.0000  0.0048  0.0016 </r>
        <r>  0.0001  0.0055  0.0002  0.0021  0.0009  0.0128  0.0000  0.0046  0.0010 </r>
        <r>  0.0083  0.0004  0.0102  0.0002  0.0045  0.0006  0.0008  0.0001  0.0020 </r>
        <r>  0.0084  0.0004  0.0100  0.0002  0.0045  0.0006  0.0008  0.0001  0.0020 </r>
        <r>  0.0001  0.0055  0.0001  0.0021  0.0009  0.0127  0.0000  0.0047  0.0010 </r>
        <r>  0.0329  0.0005  0.0002  0.0000  0.0178  0.0004  0.0026  0.0009  0.0062 </r>
        <r>  0.0005  0.0195  0.0000  0.0067  0.0005  0.0001  0.0000  0.0001  0.0000 </r>
        <r>  0.0005  0.0195  0.0000  0.0067  0.0005  0.0001  0.0000  0.0001  0.0000 </r>
        <r>  0.0328  0.0005  0.0002  0.0000  0.0178  0.0004  0.0026  0.0009  0.0062 </r>
        <r>  0.0004  0.0079  0.0001  0.0026  0.0001  0.0076  0.0000  0.0026  0.0002 </r>
        <r>  0.0256  0.0001  0.0078  0.0000  0.0116  0.0001  0.0001  0.0000  0.0037 </r>
        <r>  0.0256  0.0001  0.0079  0.0000  0.0116  0.0001  0.0001  0.0000  0.0037 </r>
        <r>  0.0004  0.0079  0.0001  0.0027  0.0001  0.0076  0.0000  0.0025  0.0002 </r>
       </set>
       <set comment="band 143">
        <r>  0.0000  0.0000  0.0081  0.0000  0.0002  0.0022  0.0004  0.0065  0.0001 </r>
        <r>  0.0005  0.0001  0.0209  0.0002  0.0001  0.0024  0.0006  0.0073  0.0000 </r>
        <r>  0.0006  0.0001  0.0207  0.0002  0.0001  0.0024  0.0006  0.0073  0.0000 </r>
        <r>  0.0000  0.0000  0.0081  0.0000  0.0002  0.0022  0.0004  0.0066  0.0001 </r>
        <r>  0.0013  0.0000  0.0004  0.0000  0.0010  0.0053  0.0000  0.0160  0.0003 </r>
        <r>  0.0002  0.0001  0.0299  0.0002  0.0001  0.0001  0.0000  0.0004  0.0000 </r>
        <r>  0.0002  0.0001  0.0299  0.0002  0.0001  0.0001  0.0000  0.0004  0.0000 </r>
        <r>  0.0013  0.0000  0.0004  0.0000  0.0011  0.0054  0.0000  0.0161  0.0004 </r>
        <r>  0.0014  0.0000  0.0031  0.0000  0.0010  0.0046  0.0000  0.0140  0.0003 </r>
        <r>  0.0003  0.0001  0.0268  0.0002  0.0001  0.0006  0.0000  0.0017  0.0000 </r>
        <r>  0.0003  0.0001  0.0270  0.0002  0.0001  0.0006  0.0000  0.0017  0.0000 </r>
        <r>  0.0013  0.0000  0.0031  0.0000  0.0010  0.0047  0.0000  0.0139  0.0003 </r>
        <r>  0.0012  0.0000  0.0156  0.0001  0.0006  0.0025  0.0000  0.0078  0.0002 </r>
        <r>  0.0003  0.0000  0.0141  0.0001  0.0004  0.0027  0.0000  0.0080  0.0001 </r>
        <r>  0.0003  0.0000  0.0143  0.0001  0.0004  0.0027  0.0000  0.0080  0.0001 </r>
        <r>  0.0012  0.0000  0.0155  0.0001  0.0006  0.0026  0.0000  0.0077  0.0002 </r>
        <r>  0.0013  0.0000  0.0031  0.0001  0.0008  0.0046  0.0000  0.0139  0.0003 </r>
        <r>  0.0000  0.0000  0.0268  0.0001  0.0001  0.0004  0.0003  0.0013  0.0000 </r>
        <r>  0.0000  0.0000  0.0268  0.0001  0.0001  0.0004  0.0003  0.0013  0.0000 </r>
        <r>  0.0014  0.0000  0.0031  0.0001  0.0008  0.0046  0.0000  0.0138  0.0003 </r>
        <r>  0.0002  0.0000  0.0001  0.0001  0.0002  0.0040  0.0000  0.0120  0.0001 </r>
        <r>  0.0003  0.0000  0.0295  0.0000  0.0000  0.0004  0.0006  0.0011  0.0000 </r>
        <r>  0.0003  0.0000  0.0293  0.0000  0.0000  0.0003  0.0006  0.0010  0.0000 </r>
        <r>  0.0002  0.0000  0.0001  0.0001  0.0002  0.0040  0.0000  0.0121  0.0001 </r>
       </set>
       <set comment="band 144">
        <r>  0.0006  0.0001  0.0208  0.0002  0.0001  0.0024  0.0006  0.0073  0.0000 </r>
        <r>  0.0000  0.0000  0.0081  0.0000  0.0002  0.0022  0.0004  0.0066  0.0001 </r>
        <r>  0.0000  0.0000  0.0082  0.0000  0.0002  0.0022  0.0004  0.0066  0.0001 </r>
        <r>  0.0006  0.0001  0.0208  0.0002  0.0001  0.0025  0.0006  0.0073  0.0000 </r>
        <r>  0.0002  0.0001  0.0299  0.0002  0.0001  0.0001  0.0000  0.0004  0.0000 </r>
        <r>  0.0013  0.0000  0.0004  0.0000  0.0011  0.0053  0.0000  0.0160  0.0004 </r>
        <r>  0.0013  0.0000  0.0004  0.0000  0.0011  0.0053  0.0000  0.0160  0.0004 </r>
        <r>  0.0002  0.0001  0.0299  0.0002  0.0001  0.0001  0.0000  0.0004  0.0000 </r>
        <r>  0.0003  0.0001  0.0269  0.0002  0.0001  0.0006  0.0000  0.0017  0.0000 </r>
        <r>  0.0013  0.0000  0.0031  0.0000  0.0010  0.0046  0.0000  0.0140  0.0003 </r>
        <r>  0.0014  0.0000  0.0031  0.0000  0.0010  0.0047  0.0000  0.0140  0.0003 </r>
        <r>  0.0003  0.0001  0.0270  0.0002  0.0001  0.0006  0.0000  0.0017  0.0000 </r>
        <r>  0.0003  0.0000  0.0142  0.0001  0.0004  0.0027  0.0000  0.0080  0.0001 </r>
        <r>  0.0012  0.0000  0.0156  0.0001  0.0006  0.0026  0.0000  0.0078  0.0002 </r>
        <r>  0.0012  0.0000  0.0156  0.0001  0.0006  0.0026  0.0000  0.0078  0.0002 </r>
        <r>  0.0003  0.0000  0.0143  0.0001  0.0004  0.0027  0.0000  0.0080  0.0001 </r>
        <r>  0.0000  0.0000  0.0267  0.0001  0.0001  0.0004  0.0003  0.0013  0.0000 </r>
        <r>  0.0013  0.0000  0.0031  0.0001  0.0008  0.0046  0.0000  0.0138  0.0003 </r>
        <r>  0.0013  0.0000  0.0031  0.0001  0.0008  0.0046  0.0000  0.0138  0.0003 </r>
        <r>  0.0000  0.0000  0.0268  0.0001  0.0001  0.0004  0.0003  0.0013  0.0000 </r>
        <r>  0.0003  0.0000  0.0294  0.0000  0.0000  0.0004  0.0006  0.0011  0.0000 </r>
        <r>  0.0002  0.0000  0.0001  0.0001  0.0002  0.0040  0.0000  0.0120  0.0001 </r>
        <r>  0.0002  0.0000  0.0001  0.0001  0.0002  0.0040  0.0000  0.0120  0.0001 </r>
        <r>  0.0003  0.0000  0.0293  0.0000  0.0000  0.0003  0.0006  0.0010  0.0000 </r>
       </set>
      </set>
     </set>
    </set>
   </array>
  </projected>
 </calculation>
 <structure name="finalpos" >
  <crystal>
   <varray name="basis" >
    <v>       5.63719400       0.00000000       0.00000000 </v>
    <v>      -2.81859700       4.88195300       0.00000000 </v>
    <v>       0.00000000       0.00000000      41.42474600 </v>
   </varray>
   <i name="volume">   1140.03039171 </i>
   <varray name="rec_basis" >
    <v>       0.17739322       0.10241803      -0.00000000 </v>
    <v>       0.00000000       0.20483606       0.00000000 </v>
    <v>       0.00000000      -0.00000000       0.02414016 </v>
   </varray>
  </crystal>
  <varray name="positions" >
   <v>       0.33333300       0.16666700       0.36111100 </v>
   <v>       0.33333300       0.66666700       0.36111100 </v>
   <v>       0.83333300       0.16666700       0.36111100 </v>
   <v>       0.83333300       0.66666700       0.36111100 </v>
   <v>       0.00000000       0.00000000       0.41666700 </v>
   <v>       0.00000000       0.50000000       0.41666700 </v>
   <v>       0.50000000       0.00000000       0.41666700 </v>
   <v>       0.50000000       0.50000000       0.41666700 </v>
   <v>       0.16666700       0.33333300       0.47222200 </v>
   <v>       0.16666700       0.83333300       0.47222200 </v>
   <v>       0.66666700       0.33333300       0.47222200 </v>
   <v>       0.66666700       0.83333300       0.47222200 </v>
   <v>       0.33295820       0.16718398       0.52902049 </v>
   <v>       0.33269110       0.66713764       0.52898872 </v>
   <v>       0.83281553       0.16724586       0.52898342 </v>
   <v>       0.83265436       0.66722423       0.52896757 </v>
   <v>      -0.00536250       0.00534598       0.58563893 </v>
   <v>       0.99457725       0.50531293       0.58568821 </v>
   <v>       0.49468750       0.00543198       0.58568544 </v>
   <v>       0.49473016       0.50536375       0.58569240 </v>
   <v>       0.16644623       0.33342629       0.64356051 </v>
   <v>       0.16642808       0.83343587       0.64354879 </v>
   <v>       0.66649401       0.33349580       0.64359878 </v>
   <v>       0.66650166       0.83347477       0.64356596 </v>
  </varray>
  <varray name="selective"  type="logical" >
   <v type="logical" >  F  F  F </v>
   <v type="logical" >  F  F  F </v>
   <v type="logical" >  F  F  F </v>
   <v type="logical" >  F  F  F </v>
   <v type="logical" >  F  F  F </v>
   <v type="logical" >  F  F  F </v>
   <v type="logical" >  F  F  F </v>
   <v type="logical" >  F  F  F </v>
   <v type="logical" >  F  F  F </v>
   <v type="logical" >  F  F  F </v>
   <v type="logical" >  F  F  F </v>
   <v type="logical" >  F  F  F </v>
   <v type="logical" >  T  T  T </v>
   <v type="logical" >  T  T  T </v>
   <v type="logical" >  T  T  T </v>
   <v type="logical" >  T  T  T </v>
   <v type="logical" >  T  T  T </v>
   <v type="logical" >  T  T  T </v>
   <v type="logical" >  T  T  T </v>
   <v type="logical" >  T  T  T </v>
   <v type="logical" >  T  T  T </v>
   <v type="logical" >  T  T  T </v>
   <v type="logical" >  T  T  T </v>
   <v type="logical" >  T  T  T </v>
  </varray>
  <nose>
   <v>      -3.00000000       0.00000000       0.00010000       0.00010000 </v>
  </nose>
 </structure>
</modeling>
