       N       E                     dE             d eps       ncg     rms          rms(c)
DAV:   1     0.338449452352E+02    0.33845E+02   -0.45359E+03  2856   0.635E+02
DAV:   2    -0.538645128072E+01   -0.39231E+02   -0.37503E+02  3220   0.153E+02
DAV:   3    -0.590554426080E+01   -0.51909E+00   -0.51818E+00  3268   0.162E+01
DAV:   4    -0.590766463362E+01   -0.21204E-02   -0.21202E-02  3316   0.122E+00
DAV:   5    -0.590768229115E+01   -0.17658E-04   -0.17658E-04  3376   0.101E-01    0.109E+01
DAV:   6    -0.559306674113E+01    0.31462E+00   -0.66680E-01  2972   0.622E+00    0.583E+00
DAV:   7    -0.555686644190E+01    0.36200E-01   -0.13561E-01  3132   0.278E+00    0.229E+00
DAV:   8    -0.555435363140E+01    0.25128E-02   -0.48632E-03  2896   0.536E-01    0.611E-01
DAV:   9    -0.555411431768E+01    0.23931E-03   -0.11640E-04  3088   0.869E-02    0.771E-02
DAV:  10    -0.555411433355E+01   -0.15870E-07   -0.51078E-06  1476   0.188E-02
   1 F= -.55541143E+01 E0= -.55530135E+01  d E =-.220160E-02
