 vasp.6.2.0 18Jan21 (build Feb  1 2022 01:28:57) complex                         
 executed on             LinuxPGI date 2022.05.18  19:38:25
 running on   16 total cores
 distrk:  each k-point on   16 cores,    1 groups
 distr:  one band on NCORE=   4 cores,    4 groups


--------------------------------------------------------------------------------------------------------


 INCAR:
   ALGO = 38
   EDIFF = 0.0001
   EDIFFG = -0.03
   ENCUT = 420
   GGA = RP
   IBRION = 2
   ISIF = 0
   ISMEAR = 0
   ISPIN = 1
   ISYM = 0
   LASPH = False
   LORBIT = 11
   LREAL = False
   LVTOT = False
   LWAVE = False
   NCORE = 4
   NELM = 60
   NELMIN = 4
   NSW = 0
   PREC = Normal
   SIGMA = 0.05
   SYMPREC = 1e-05

 POTCAR:    PAW_PBE Pt 04Feb2005                  
 POTCAR:    PAW_PBE Pt 04Feb2005                  
   SHA256 =  3ed90460adef76debcff1cfb73ee1349b515b1a3db03439735b44de3a8db7dc8 Pt/POTCAR             
   COPYR  = (c) Copyright 04Feb2005 Georg Kresse                                                    
   COPYR  = This file is part of the software VASP. Any use, copying, and all other rights are regul
   COPYR  = If you do not have a valid VASP license, you may not use, copy or distribute this file. 
   VRHFIN =Pt: s1d9                                                                                 
   LEXCH  = PE                                                                                      
   EATOM  =   729.1176 eV,   53.5886 Ry                                                             
                                                                                                    
   TITEL  = PAW_PBE Pt 04Feb2005                                                                    
   LULTRA =        F    use ultrasoft PP ?                                                          
   IUNSCR =        1    unscreen: 0-lin 1-nonlin 2-no                                               
   RPACOR =    2.330    partial core radius                                                         
   POMASS =  195.080; ZVAL   =   10.000    mass and valenz                                          
   RCORE  =    2.600    outmost cutoff radius                                                       
   RWIGS  =    2.750; RWIGS  =    1.455    wigner-seitz radius (au A)                               
   ENMAX  =  230.283; ENMIN  =  172.712 eV                                                          
   ICORE  =        3    local potential                                                             
   LCOR   =        T    correct aug charges                                                         
   LPAW   =        T    paw PP                                                                      
   EAUG   =  358.966                                                                                
   DEXC   =    0.000                                                                                
   RMAX   =    2.658    core radius for proj-oper                                                   
   RAUG   =    1.300    factor for augmentation sphere                                              
   RDEP   =    2.761    radius for radial grids                                                     
   RDEPT  =    2.203    core radius for aug-charge                                                  
                                                                                                    
   Atomic configuration                                                                             
   16 entries                                                                                       
     n  l   j            E        occ.                                                              
     1  0  0.50    -78401.1885   2.0000                                                             
     2  0  0.50    -13770.7750   2.0000                                                             
     2  1  1.50    -11931.0468   6.0000                                                             
     3  0  0.50     -3234.7234   2.0000                                                             
     3  1  1.50     -2699.2216   6.0000                                                             
     3  2  2.50     -2119.5714  10.0000                                                             
     4  0  0.50      -695.1528   2.0000                                                             
     4  1  1.50      -519.6034   6.0000                                                             
     4  2  2.50      -306.6786  10.0000                                                             
     4  3  3.50       -70.1041  14.0000                                                             
     5  0  0.50      -101.7747   2.0000                                                             
     5  1  1.50       -55.9873   6.0000                                                             
     5  2  2.50        -6.1423   9.0000                                                             
     6  0  0.50        -5.6573   1.0000                                                             
     6  1  1.50        -6.8029   0.0000                                                             
     5  3  2.50        -1.3606   0.0000                                                             
   Description                                                                                      
     l       E           TYP  RCUT    TYP  RCUT                                                     
     2     -6.1423404     23  2.500                                                                 
     2     -7.5029230     23  2.500                                                                 
     0     -5.6573207     23  2.500                                                                 
     0      0.7416693     23  2.500                                                                 
     1     -2.7211652     23  2.600                                                                 
     1     20.4087390     23  2.600                                                                 
     3     -1.3605826     23  2.500                                                                 
  local pseudopotential read in
  partial core-charges read in
  partial kinetic energy density read in
  atomic valenz-charges read in
  non local Contribution for L=            2  read in
    real space projection operators read in
  non local Contribution for L=            2  read in
    real space projection operators read in
  non local Contribution for L=            0  read in
    real space projection operators read in
  non local Contribution for L=            0  read in
    real space projection operators read in
  non local Contribution for L=            1  read in
    real space projection operators read in
  non local Contribution for L=            1  read in
    real space projection operators read in
    PAW grid and wavefunctions read in
 
   number of l-projection  operators is LMAX  =            6
   number of lm-projection operators is LMMAX =           18
 
 -----------------------------------------------------------------------------
|                                                                             |
|               ----> ADVICE to this user running VASP <----                  |
|                                                                             |
|     You enforced a specific xc type in the INCAR file but a different       |
|     type was found in the POTCAR file.                                      |
|     I HOPE YOU KNOW WHAT YOU ARE DOING!                                     |
|                                                                             |
 -----------------------------------------------------------------------------

  PAW_PBE Pt 04Feb2005                  :
 energy of atom  1       EATOM= -729.1176
 kinetic energy error for atom=    0.0052 (will be added to EATOM!!)
 
 
 POSCAR: Pt1
  positions in direct lattice
  velocities in cartesian coordinates
 exchange correlation table for  LEXCH =        9
   RHO(1)=    0.500       N(1)  =     2000
   RHO(2)=  100.500       N(2)  =     4000
 


--------------------------------------------------------------------------------------------------------


 ion  position               nearest neighbor table
   1  0.000  0.000  0.000-
 

IMPORTANT INFORMATION: All symmetrisations will be switched off!
NOSYMM: (Re-)initialisation of all symmetry stuff for point group C_1.


----------------------------------------------------------------------------------------

                                     Primitive cell                                     

  volume of cell :      15.7150

  direct lattice vectors                    reciprocal lattice vectors
     2.434861000  0.000005000  1.405782000     0.410701802 -0.145205748 -0.000000764
     0.811626000  2.295606000  1.405782000    -0.000000447  0.435615455 -0.000000775
     0.000007000  0.000005000  2.811542000    -0.205352284 -0.145205990  0.355677476

  length of vectors
     2.811542481  2.811541695  2.811542000     0.435615288  0.435615455  0.435615435

  position of ions in fractional coordinates (direct lattice)
     0.000000000  0.000000000  0.000000000

  ion indices of the primitive-cell ions
   primitive index   ion index
                 1           1

----------------------------------------------------------------------------------------

 
 -----------------------------------------------------------------------------
|                                                                             |
|           W    W    AA    RRRRR   N    N  II  N    N   GGGG   !!!           |
|           W    W   A  A   R    R  NN   N  II  NN   N  G    G  !!!           |
|           W    W  A    A  R    R  N N  N  II  N N  N  G       !!!           |
|           W WW W  AAAAAA  RRRRR   N  N N  II  N  N N  G  GGG   !            |
|           WW  WW  A    A  R   R   N   NN  II  N   NN  G    G                |
|           W    W  A    A  R    R  N    N  II  N    N   GGGG   !!!           |
|                                                                             |
|     The requested file  could not be found or opened for reading            |
|     k-point information. Automatic k-point generation is used as a          |
|     fallback, which may lead to unwanted results.                           |
|                                                                             |
 -----------------------------------------------------------------------------

 

Automatic generation of k-mesh.
 Grid dimensions derived from KSPACING:
 generate k-points for:    6    6    6

 Generating k-lattice:

  Cartesian coordinates                     Fractional coordinates (reciprocal lattice)
     0.068450300 -0.024200958 -0.000000127     0.166666667  0.000000000  0.000000000
    -0.000000075  0.072602576 -0.000000129     0.000000000  0.166666667 -0.000000000
    -0.034225381 -0.024200998  0.059279579     0.000000000  0.000000000  0.166666667

  Length of vectors
     0.072602548  0.072602576  0.072602573

  Shift w.r.t. Gamma in fractional coordinates (k-lattice)
     0.000000000  0.000000000  0.000000000

 
 Subroutine IBZKPT returns following result:
 ===========================================
 
 Found    112 irreducible k-points:
 
 Following reciprocal coordinates:
            Coordinates               Weight
  0.000000  0.000000  0.000000      1.000000
  0.166667  0.000000  0.000000      2.000000
  0.000000  0.166667  0.000000      2.000000
  0.000000  0.000000  0.166667      2.000000
  0.166667  0.166667  0.166667      2.000000
  0.333333  0.000000  0.000000      2.000000
  0.000000  0.333333  0.000000      2.000000
  0.000000  0.000000  0.333333      2.000000
  0.333333  0.333333  0.333333      2.000000
  0.500000  0.000000  0.000000      1.000000
  0.000000  0.500000  0.000000      1.000000
  0.000000  0.000000  0.500000      1.000000
  0.500000  0.500000  0.500000      1.000000
  0.166667  0.166667  0.000000      2.000000
  0.000000  0.166667  0.166667      2.000000
  0.166667  0.000000  0.166667      2.000000
  0.333333  0.166667  0.000000      2.000000
  0.000000  0.333333  0.166667      2.000000
  0.166667  0.000000  0.333333      2.000000
  0.166667  0.166667 -0.166667      2.000000
  0.333333  0.166667  0.333333      2.000000
  0.166667  0.333333  0.000000      2.000000
  0.166667 -0.166667 -0.166667      2.000000
  0.333333  0.333333  0.166667      2.000000
  0.000000  0.166667  0.333333      2.000000
 -0.166667  0.166667 -0.166667      2.000000
  0.166667  0.333333  0.333333      2.000000
  0.333333  0.000000  0.166667      2.000000
  0.500000  0.166667  0.000000      2.000000
  0.000000  0.500000  0.166667      2.000000
  0.166667  0.000000  0.500000      2.000000
  0.166667  0.166667 -0.333333      2.000000
  0.500000  0.333333  0.500000      2.000000
  0.166667  0.500000  0.000000      2.000000
  0.333333 -0.166667 -0.166667      2.000000
  0.500000  0.500000  0.333333      2.000000
  0.000000  0.166667  0.500000      2.000000
 -0.166667  0.333333 -0.166667      2.000000
  0.333333  0.500000  0.500000      2.000000
  0.500000  0.000000  0.166667      2.000000
 -0.333333  0.166667  0.000000      2.000000
  0.000000 -0.333333  0.166667      2.000000
  0.166667  0.000000 -0.333333      2.000000
  0.166667  0.166667  0.500000      2.000000
 -0.333333  0.500000 -0.333333      2.000000
  0.166667 -0.333333  0.000000      2.000000
  0.500000 -0.166667 -0.166667      2.000000
 -0.333333 -0.333333  0.500000      2.000000
  0.000000  0.166667 -0.333333      2.000000
 -0.166667  0.500000 -0.166667      2.000000
  0.500000 -0.333333 -0.333333      2.000000
 -0.333333  0.000000  0.166667      2.000000
 -0.166667  0.166667  0.000000      2.000000
  0.000000 -0.166667  0.166667      2.000000
  0.166667  0.000000 -0.166667      2.000000
  0.166667  0.166667  0.333333      2.000000
 -0.166667 -0.333333 -0.166667      2.000000
 -0.333333 -0.166667 -0.166667      2.000000
  0.333333  0.333333  0.000000      2.000000
  0.000000  0.333333  0.333333      2.000000
  0.333333  0.000000  0.333333      2.000000
  0.500000  0.333333  0.000000      2.000000
  0.000000  0.500000  0.333333      2.000000
  0.333333  0.000000  0.500000      2.000000
  0.333333  0.333333 -0.166667      2.000000
  0.500000  0.166667  0.500000      2.000000
  0.333333  0.500000  0.000000      2.000000
  0.166667 -0.333333 -0.333333      2.000000
  0.500000  0.500000  0.166667      2.000000
  0.000000  0.333333  0.500000      2.000000
 -0.333333  0.166667 -0.333333      2.000000
  0.166667  0.500000  0.500000      2.000000
  0.500000  0.000000  0.333333      2.000000
 -0.333333  0.333333  0.000000      2.000000
  0.000000 -0.333333  0.333333      2.000000
  0.333333  0.000000 -0.333333      2.000000
  0.333333  0.333333 -0.333333      2.000000
 -0.333333  0.333333 -0.333333      2.000000
  0.333333 -0.333333 -0.333333      2.000000
  0.500000  0.500000  0.000000      1.000000
  0.000000  0.500000  0.500000      1.000000
  0.500000  0.000000  0.500000      1.000000
  0.500000  0.333333  0.166667      2.000000
  0.166667  0.500000  0.333333      2.000000
  0.333333  0.166667  0.500000      2.000000
  0.333333  0.166667 -0.166667      2.000000
  0.500000  0.166667  0.333333      2.000000
  0.166667 -0.333333 -0.166667      2.000000
  0.166667  0.333333 -0.166667      2.000000
  0.166667 -0.166667 -0.333333      2.000000
  0.333333  0.500000  0.166667      2.000000
 -0.166667  0.166667 -0.333333      2.000000
 -0.333333  0.166667 -0.166667      2.000000
  0.166667  0.333333  0.500000      2.000000
 -0.333333  0.333333  0.166667      2.000000
  0.166667 -0.333333  0.333333      2.000000
  0.333333  0.166667 -0.333333      2.000000
 -0.333333  0.333333  0.500000      2.000000
  0.166667  0.500000 -0.166667      2.000000
  0.333333 -0.166667 -0.333333      2.000000
  0.500000 -0.333333  0.333333      2.000000
 -0.166667  0.166667  0.500000      2.000000
 -0.333333  0.333333 -0.166667      2.000000
  0.333333  0.500000 -0.333333      2.000000
  0.500000 -0.166667  0.166667      2.000000
 -0.166667 -0.333333  0.333333      2.000000
 -0.333333  0.500000  0.166667      2.000000
  0.166667 -0.333333  0.500000      2.000000
  0.500000  0.166667 -0.333333      2.000000
  0.500000  0.333333 -0.166667      2.000000
 -0.333333  0.166667  0.500000      2.000000
  0.166667  0.500000 -0.333333      2.000000
 
 Following cartesian coordinates:
            Coordinates               Weight
  0.000000  0.000000  0.000000      1.000000
  0.068450 -0.024201 -0.000000      2.000000
 -0.000000  0.072603 -0.000000      2.000000
 -0.034225 -0.024201  0.059280      2.000000
  0.034225  0.024201  0.059279      2.000000
  0.136901 -0.048402 -0.000000      2.000000
 -0.000000  0.145205 -0.000000      2.000000
 -0.068451 -0.048402  0.118559      2.000000
  0.068450  0.048401  0.118559      2.000000
  0.205351 -0.072603 -0.000000      1.000000
 -0.000000  0.217808 -0.000000      1.000000
 -0.102676 -0.072603  0.177839      1.000000
  0.102675  0.072602  0.177838      1.000000
  0.068450  0.048402 -0.000000      2.000000
 -0.034225  0.048402  0.059279      2.000000
  0.034225 -0.048402  0.059279      2.000000
  0.136901  0.024201 -0.000000      2.000000
 -0.034226  0.121004  0.059279      2.000000
 -0.000000 -0.072603  0.118559      2.000000
  0.102676  0.072603 -0.059280      2.000000
  0.068450 -0.024201  0.118559      2.000000
  0.068450  0.121004 -0.000000      2.000000
  0.102676 -0.072603 -0.059280      2.000000
  0.102675  0.072602  0.059279      2.000000
 -0.068451  0.024201  0.118559      2.000000
 -0.034225  0.121005 -0.059280      2.000000
 -0.000001  0.072602  0.118559      2.000000
  0.102675 -0.072603  0.059279      2.000000
  0.205351 -0.000000 -0.000001      2.000000
 -0.034226  0.193607  0.059279      2.000000
 -0.034226 -0.096804  0.177839      2.000000
  0.136901  0.096804 -0.118559      2.000000
  0.102675 -0.000001  0.177838      2.000000
  0.068450  0.193607 -0.000001      2.000000
  0.171126 -0.096803 -0.059280      2.000000
  0.136900  0.096803  0.118558      2.000000
 -0.102676 -0.000000  0.177839      2.000000
 -0.034225  0.193607 -0.059280      2.000000
  0.034224  0.096803  0.177838      2.000000
  0.171126 -0.096804  0.059279      2.000000
 -0.136901  0.121004  0.000000      2.000000
 -0.034225 -0.169406  0.059280      2.000000
  0.136901  0.024201 -0.118559      2.000000
 -0.034226 -0.024201  0.177838      2.000000
 -0.068450  0.314612 -0.118559      2.000000
  0.068450 -0.169406  0.000000      2.000000
  0.239576 -0.121004 -0.059280      2.000000
 -0.239577 -0.169406  0.177839      2.000000
  0.068451  0.121005 -0.118559      2.000000
 -0.034225  0.266210 -0.059280      2.000000
  0.273802 -0.169406 -0.118559      2.000000
 -0.171126  0.024201  0.059280      2.000000
 -0.068450  0.096804 -0.000000      2.000000
 -0.034225 -0.096804  0.059280      2.000000
  0.102676  0.000000 -0.059280      2.000000
 -0.000001 -0.000000  0.118559      2.000000
 -0.034225 -0.096803 -0.059279      2.000000
 -0.102675  0.000000 -0.059279      2.000000
  0.136900  0.096803 -0.000001      2.000000
 -0.068451  0.096803  0.118559      2.000000
  0.068450 -0.096804  0.118559      2.000000
  0.205351  0.072602 -0.000001      2.000000
 -0.068451  0.169406  0.118559      2.000000
  0.034224 -0.121005  0.177838      2.000000
  0.171126  0.121004 -0.059280      2.000000
  0.102675 -0.072603  0.177838      2.000000
  0.136900  0.169406 -0.000001      2.000000
  0.136901 -0.121004 -0.118559      2.000000
  0.171125  0.121004  0.059279      2.000000
 -0.102676  0.072602  0.177838      2.000000
 -0.068450  0.169406 -0.118559      2.000000
 -0.034226  0.121004  0.177838      2.000000
  0.136900 -0.121005  0.118559      2.000000
 -0.136901  0.193607 -0.000000      2.000000
 -0.068451 -0.193607  0.118559      2.000000
  0.205351  0.000000 -0.118559      2.000000
  0.205351  0.145205 -0.118560      2.000000
 -0.068450  0.242009 -0.118559      2.000000
  0.205352 -0.145205 -0.118559      2.000000
  0.205351  0.145205 -0.000001      1.000000
 -0.102676  0.145205  0.177838      1.000000
  0.102675 -0.145206  0.177838      1.000000
  0.171125  0.048401  0.059279      2.000000
 -0.000001  0.145205  0.118559      2.000000
  0.034224 -0.048402  0.177838      2.000000
  0.171126  0.048402 -0.059280      2.000000
  0.136900 -0.048402  0.118559      2.000000
  0.102676 -0.145205 -0.059279      2.000000
  0.102676  0.145205 -0.059280      2.000000
  0.136901 -0.048402 -0.118559      2.000000
  0.102675  0.145205  0.059279      2.000000
  0.000000  0.145206 -0.118559      2.000000
 -0.102675  0.145205 -0.059279      2.000000
 -0.034226  0.048401  0.177838      2.000000
 -0.171126  0.169406  0.059280      2.000000
 -0.000000 -0.217808  0.118559      2.000000
  0.205351  0.072603 -0.118560      2.000000
 -0.239577  0.121004  0.177839      2.000000
  0.102675  0.217808 -0.059280      2.000000
  0.205351 -0.072602 -0.118559      2.000000
  0.136900 -0.266210  0.118559      2.000000
 -0.171127  0.024201  0.177839      2.000000
 -0.102675  0.217808 -0.059280      2.000000
  0.205351  0.217808 -0.118560      2.000000
  0.171126 -0.169406  0.059279      2.000000
 -0.136901 -0.169406  0.118560      2.000000
 -0.171126  0.242009  0.059279      2.000000
 -0.034226 -0.242009  0.177839      2.000000
  0.273802  0.048402 -0.118560      2.000000
  0.239576  0.096803 -0.059280      2.000000
 -0.239577  0.048401  0.177839      2.000000
  0.136901  0.242009 -0.118560      2.000000
 


--------------------------------------------------------------------------------------------------------




 Dimension of arrays:
   k-points           NKPTS =    112   k-points in BZ     NKDIM =    112   number of bands    NBANDS=     12
   number of dos      NEDOS =    301   number of ions     NIONS =      1
   non local maximal  LDIM  =      6   non local SUM 2l+1 LMDIM =     18
   total plane-waves  NPLWV =   2744
   max r-space proj   IRMAX =      1   max aug-charges    IRDMAX=  10774
   dimension x,y,z NGX =    14 NGY =   14 NGZ =   14
   dimension x,y,z NGXF=    28 NGYF=   28 NGZF=   28
   support grid    NGXF=    28 NGYF=   28 NGZF=   28
   ions per type =               1
   NGX,Y,Z   is equivalent  to a cutoff of   8.28,  8.28,  8.28 a.u.
   NGXF,Y,Z  is equivalent  to a cutoff of  16.56, 16.56, 16.56 a.u.

 SYSTEM =  unknown system                          
 POSCAR =  Pt1                                     

 Startparameter for this run:
   NWRITE =      2    write-flag & timer
   PREC   = normal    normal or accurate (medium, high low for compatibility)
   ISTART =      0    job   : 0-new  1-cont  2-samecut
   ICHARG =      2    charge: 1-file 2-atom 10-const
   ISPIN  =      1    spin polarized calculation?
   LNONCOLLINEAR =      F non collinear calculations
   LSORBIT =      F    spin-orbit coupling
   INIWAV =      1    electr: 0-lowe 1-rand  2-diag
   LASPH  =      F    aspherical Exc in radial PAW
   METAGGA=      F    non-selfconsistent MetaGGA calc.

 Electronic Relaxation 1
   ENCUT  =  420.0 eV  30.87 Ry    5.56 a.u.   4.70  4.70  4.70*2*pi/ulx,y,z
   ENINI  =  420.0     initial cutoff
   ENAUG  =  359.0 eV  augmentation charge cutoff
   NELM   =     60;   NELMIN=  4; NELMDL= -5     # of ELM steps 
   EDIFF  = 0.1E-03   stopping-criterion for ELM
   LREAL  =      F    real-space projection
   NLSPLINE    = F    spline interpolate recip. space projectors
   LCOMPAT=      F    compatible to vasp.4.4
   GGA_COMPAT  = T    GGA compatible to vasp.4.4-vasp.4.6
   LMAXPAW     = -100 max onsite density
   LMAXMIX     =    2 max onsite mixed and CHGCAR
   VOSKOWN=      0    Vosko Wilk Nusair interpolation
   ROPT   =    0.00000
 Ionic relaxation
   EDIFFG = -.3E-01   stopping-criterion for IOM
   NSW    =      0    number of steps for IOM
   NBLOCK =      1;   KBLOCK =      1    inner block; outer block 
   IBRION =     -1    ionic relax: 0-MD 1-quasi-New 2-CG
   NFREE  =      1    steps in history (QN), initial steepest desc. (CG)
   ISIF   =      0    stress and relaxation
   IWAVPR =     10    prediction:  0-non 1-charg 2-wave 3-comb
   ISYM   =      0    0-nonsym 1-usesym 2-fastsym
   LCORR  =      T    Harris-Foulkes like correction to forces

   POTIM  = 0.5000    time-step for ionic-motion
   TEIN   =    0.0    initial temperature
   TEBEG  =    0.0;   TEEND  =   0.0 temperature during run
   SMASS  =  -3.00    Nose mass-parameter (am)
   estimated Nose-frequenzy (Omega)   =  0.10E-29 period in steps = 0.13E+47 mass=  -0.181E-27a.u.
   SCALEE = 1.0000    scale energy and forces
   NPACO  =    256;   APACO  = 16.0  distance and # of slots for P.C.
   PSTRESS=    0.0 pullay stress

  Mass of Ions in am
   POMASS = 195.08
  Ionic Valenz
   ZVAL   =  10.00
  Atomic Wigner-Seitz radii
   RWIGS  =  -1.00
  virtual crystal weights 
   VCA    =   1.00
   NELECT =      10.0000    total number of electrons
   NUPDOWN=      -1.0000    fix difference up-down

 DOS related values:
   EMIN   =  10.00;   EMAX   =-10.00  energy-range for DOS
   EFERMI =   0.00
   ISMEAR =     0;   SIGMA  =   0.05  broadening in eV -4-tet -1-fermi 0-gaus

 Electronic relaxation 2 (details)
   IALGO  =     38    algorithm
   LDIAG  =      T    sub-space diagonalisation (order eigenvalues)
   LSUBROT=      F    optimize rotation matrix (better conditioning)
   TURBO    =      0    0=normal 1=particle mesh
   IRESTART =      0    0=no restart 2=restart with 2 vectors
   NREBOOT  =      0    no. of reboots
   NMIN     =      0    reboot dimension
   EREF     =   0.00    reference energy to select bands
   IMIX   =      4    mixing-type and parameters
     AMIX     =   0.40;   BMIX     =  1.00
     AMIX_MAG =   1.60;   BMIX_MAG =  1.00
     AMIN     =   0.10
     WC   =   100.;   INIMIX=   1;  MIXPRE=   1;  MAXMIX= -45

 Intra band minimization:
   WEIMIN = 0.0000     energy-eigenvalue tresh-hold
   EBREAK =  0.21E-05  absolut break condition
   DEPER  =   0.30     relativ break condition  

   TIME   =   0.40     timestep for ELM

  volume/ion in A,a.u.               =      15.72       106.05
  Fermi-wavevector in a.u.,A,eV,Ry     =   1.408110  2.660942 26.977271  1.982773
  Thomas-Fermi vector in A             =   2.530301
 
 Write flags
   LWAVE        =      F    write WAVECAR
   LDOWNSAMPLE  =      F    k-point downsampling of WAVECAR
   LCHARG       =      T    write CHGCAR
   LVTOT        =      F    write LOCPOT, total local potential
   LVHAR        =      F    write LOCPOT, Hartree potential only
   LELF         =      F    write electronic localiz. function (ELF)
   LORBIT       =     11    0 simple, 1 ext, 2 COOP (PROOUT), +10 PAW based schemes


 Dipole corrections
   LMONO  =      F    monopole corrections only (constant potential shift)
   LDIPOL =      F    correct potential (dipole corrections)
   IDIPOL =      0    1-x, 2-y, 3-z, 4-all directions 
   EPSILON=  1.0000000 bulk dielectric constant

 Exchange correlation treatment:
   GGA     =    RP    GGA type
   LEXCH   =     9    internal setting for exchange type
   VOSKOWN=      0    Vosko Wilk Nusair interpolation
   LHFCALC =     F    Hartree Fock is set to
   LHFONE  =     F    Hartree Fock one center treatment
   AEXX    =    0.0000 exact exchange contribution

 Linear response parameters
   LEPSILON=     F    determine dielectric tensor
   LRPA    =     F    only Hartree local field effects (RPA)
   LNABLA  =     F    use nabla operator in PAW spheres
   LVEL    =     F    velocity operator in full k-point grid
   LINTERFAST=   F  fast interpolation
   KINTER  =     0    interpolate to denser k-point grid
   CSHIFT  =0.1000    complex shift for real part using Kramers Kronig
   OMEGAMAX=  -1.0    maximum frequency
   DEG_THRESHOLD= 0.2000000E-02 threshold for treating states as degnerate
   RTIME   =   -0.100 relaxation time in fs
  (WPLASMAI=    0.000 imaginary part of plasma frequency in eV, 0.658/RTIME)
   DFIELD  = 0.0000000 0.0000000 0.0000000 field for delta impulse in time
 
 Orbital magnetization related:
   ORBITALMAG=     F  switch on orbital magnetization
   LCHIMAG   =     F  perturbation theory with respect to B field
   DQ        =  0.001000  dq finite difference perturbation B field
   LLRAUG    =     F  two centre corrections for induced B field



--------------------------------------------------------------------------------------------------------


 Static calculation
 charge density and potential will be updated during run
 non-spin polarized calculation
 Variant of blocked Davidson
 Davidson routine will perform the subspace rotation
 perform sub-space diagonalisation
    after iterative eigenvector-optimisation
 modified Broyden-mixing scheme, WC =      100.0
 initial mixing is a Kerker type mixing with AMIX =  0.4000 and BMIX =      1.0000
 Hartree-type preconditioning will be used
 using additional bands             7
 reciprocal scheme for non local part
 use partial core corrections
 calculate Harris-corrections to forces 
   (improved forces if not selfconsistent)
 use gradient corrections 
 use of overlap-Matrix (Vanderbilt PP)
 Gauss-broadening in eV      SIGMA  =   0.05


--------------------------------------------------------------------------------------------------------


  energy-cutoff  :      420.00
  volume of cell :       15.72
      direct lattice vectors                 reciprocal lattice vectors
     2.434861000  0.000005000  1.405782000     0.410701802 -0.145205748 -0.000000764
     0.811626000  2.295606000  1.405782000    -0.000000447  0.435615455 -0.000000775
     0.000007000  0.000005000  2.811542000    -0.205352284 -0.145205990  0.355677476

  length of vectors
     2.811542481  2.811541695  2.811542000     0.435615288  0.435615455  0.435615435


 
 k-points in units of 2pi/SCALE and weight: read from INCAR                         
   0.00000000  0.00000000  0.00000000       0.005
   0.06845030 -0.02420096 -0.00000013       0.009
  -0.00000007  0.07260258 -0.00000013       0.009
  -0.03422538 -0.02420100  0.05927958       0.009
   0.03422485  0.02420062  0.05927932       0.009
   0.13690060 -0.04840192 -0.00000025       0.009
  -0.00000015  0.14520515 -0.00000026       0.009
  -0.06845076 -0.04840200  0.11855916       0.009
   0.06844969  0.04840124  0.11855865       0.009
   0.20535090 -0.07260287 -0.00000038       0.005
  -0.00000022  0.21780773 -0.00000039       0.005
  -0.10267614 -0.07260299  0.17783874       0.005
   0.10267454  0.07260186  0.17783797       0.005
   0.06845023  0.04840162 -0.00000026       0.009
  -0.03422546  0.04840158  0.05927945       0.009
   0.03422492 -0.04840196  0.05927945       0.009
   0.13690053  0.02420066 -0.00000038       0.009
  -0.03422553  0.12100415  0.05927932       0.009
  -0.00000046 -0.07260295  0.11855903       0.009
   0.10267561  0.07260262 -0.05927984       0.009
   0.06844976 -0.02420134  0.11855877       0.009
   0.06845015  0.12100419 -0.00000039       0.009
   0.10267576 -0.07260254 -0.05927958       0.009
   0.10267507  0.07260224  0.05927907       0.009
  -0.06845084  0.02420058  0.11855903       0.009
  -0.03422499  0.12100453 -0.05927958       0.009
  -0.00000061  0.07260220  0.11855877       0.009
   0.10267522 -0.07260291  0.05927932       0.009
   0.20535083 -0.00000030 -0.00000051       0.009
  -0.03422560  0.19360673  0.05927919       0.009
  -0.03422584 -0.09680395  0.17783861       0.009
   0.13690099  0.09680361 -0.11855942       0.009
   0.10267461 -0.00000072  0.17783810       0.009
   0.06845008  0.19360677 -0.00000051       0.009
   0.17112606 -0.09680349 -0.05927971       0.009
   0.13689992  0.09680286  0.11855839       0.009
  -0.10267622 -0.00000042  0.17783861       0.009
  -0.03422507  0.19360711 -0.05927971       0.009
   0.03422423  0.09680282  0.17783810       0.009
   0.17112552 -0.09680387  0.05927920       0.009
  -0.13690068  0.12100449  0.00000013       0.009
  -0.03422523 -0.16940615  0.05927984       0.009
   0.13690106  0.02420104 -0.11855929       0.009
  -0.03422592 -0.02420138  0.17783848       0.009
  -0.06845006  0.31461164 -0.11855929       0.009
   0.06845045 -0.16940611  0.00000013       0.009
   0.23957636 -0.12100445 -0.05927983       0.009
  -0.23957659 -0.16940623  0.17783925       0.009
   0.06845069  0.12100457 -0.11855929       0.009
  -0.03422514  0.26620968 -0.05927984       0.009
   0.27380181 -0.16940603 -0.11855928       0.009
  -0.17112598  0.02420092  0.05927983       0.009
  -0.06845037  0.09680353 -0.00000000       0.009
  -0.03422531 -0.09680357  0.05927971       0.009
   0.10267568  0.00000004 -0.05927971       0.009
  -0.00000054 -0.00000038  0.11855890       0.009
  -0.03422477 -0.09680320 -0.05927919       0.009
  -0.10267515  0.00000034 -0.05927920       0.009
   0.13690045  0.09680324 -0.00000051       0.009
  -0.06845091  0.09680316  0.11855890       0.009
   0.06844984 -0.09680391  0.11855890       0.009
   0.20535075  0.07260228 -0.00000064       0.009
  -0.06845099  0.16940573  0.11855877       0.009
   0.03422446 -0.12100491  0.17783848       0.009
   0.17112583  0.12100423 -0.05928009       0.009
   0.10267468 -0.07260329  0.17783823       0.009
   0.13690038  0.16940581 -0.00000064       0.009
   0.13690121 -0.12100411 -0.11855903       0.009
   0.17112530  0.12100386  0.05927881       0.009
  -0.10267629  0.07260216  0.17783848       0.009
  -0.06844991  0.16940649 -0.11855903       0.009
  -0.03422607  0.12100377  0.17783822       0.009
   0.13690014 -0.12100487  0.11855878       0.009
  -0.13690075  0.19360707 -0.00000000       0.009
  -0.06845061 -0.19360715  0.11855942       0.009
   0.20535136  0.00000008 -0.11855941       0.009
   0.20535121  0.14520523 -0.11855967       0.009
  -0.06844999  0.24200906 -0.11855916       0.009
   0.20535151 -0.14520507 -0.11855916       0.009
   0.20535068  0.14520485 -0.00000077       0.005
  -0.10267637  0.14520473  0.17783835       0.005
   0.10267476 -0.14520587  0.17783836       0.005
   0.17112537  0.04840128  0.05927894       0.009
  -0.00000068  0.14520477  0.11855864       0.009
   0.03422438 -0.04840234  0.17783835       0.009
   0.17112591  0.04840166 -0.05927996       0.009
   0.13690007 -0.04840229  0.11855865       0.009
   0.10267583 -0.14520511 -0.05927945       0.009
   0.10267553  0.14520519 -0.05927997       0.009
   0.13690114 -0.04840154 -0.11855916       0.009
   0.10267500  0.14520481  0.05927894       0.009
   0.00000039  0.14520553 -0.11855916       0.009
  -0.10267529  0.14520549 -0.05927945       0.009
  -0.03422599  0.04840120  0.17783835       0.009
  -0.17112613  0.16940607  0.05927958       0.009
  -0.00000031 -0.21780811  0.11855929       0.009
   0.20535129  0.07260266 -0.11855954       0.009
  -0.23957689  0.12100407  0.17783873       0.009
   0.10267546  0.21780777 -0.05928009       0.009
   0.20535144 -0.07260250 -0.11855928       0.009
   0.13690029 -0.26621002  0.11855903       0.009
  -0.17112652  0.02420054  0.17783874       0.009
  -0.10267537  0.21780807 -0.05927958       0.009
   0.20535114  0.21780781 -0.11855980       0.009
   0.17112559 -0.16940645  0.05927933       0.009
  -0.13690091 -0.16940619  0.11855954       0.009
  -0.17112621  0.24200865  0.05927945       0.009
  -0.03422569 -0.24200910  0.17783887       0.009
   0.27380159  0.04840170 -0.11855967       0.009
   0.23957613  0.09680328 -0.05928022       0.009
  -0.23957682  0.04840150  0.17783886       0.009
   0.13690084  0.24200877 -0.11855967       0.009
 
 k-points in reciprocal lattice and weights: read from INCAR                         
   0.00000000  0.00000000  0.00000000       0.005
   0.16666667  0.00000000  0.00000000       0.009
   0.00000000  0.16666667  0.00000000       0.009
   0.00000000  0.00000000  0.16666667       0.009
   0.16666667  0.16666667  0.16666667       0.009
   0.33333333  0.00000000  0.00000000       0.009
   0.00000000  0.33333333  0.00000000       0.009
   0.00000000  0.00000000  0.33333333       0.009
   0.33333333  0.33333333  0.33333333       0.009
   0.50000000  0.00000000  0.00000000       0.005
   0.00000000  0.50000000  0.00000000       0.005
   0.00000000  0.00000000  0.50000000       0.005
   0.50000000  0.50000000  0.50000000       0.005
   0.16666667  0.16666667  0.00000000       0.009
   0.00000000  0.16666667  0.16666667       0.009
   0.16666667  0.00000000  0.16666667       0.009
   0.33333333  0.16666667  0.00000000       0.009
   0.00000000  0.33333333  0.16666667       0.009
   0.16666667  0.00000000  0.33333333       0.009
   0.16666667  0.16666667 -0.16666667       0.009
   0.33333333  0.16666667  0.33333333       0.009
   0.16666667  0.33333333  0.00000000       0.009
   0.16666667 -0.16666667 -0.16666667       0.009
   0.33333333  0.33333333  0.16666667       0.009
   0.00000000  0.16666667  0.33333333       0.009
  -0.16666667  0.16666667 -0.16666667       0.009
   0.16666667  0.33333333  0.33333333       0.009
   0.33333333  0.00000000  0.16666667       0.009
   0.50000000  0.16666667  0.00000000       0.009
   0.00000000  0.50000000  0.16666667       0.009
   0.16666667  0.00000000  0.50000000       0.009
   0.16666667  0.16666667 -0.33333333       0.009
   0.50000000  0.33333333  0.50000000       0.009
   0.16666667  0.50000000  0.00000000       0.009
   0.33333333 -0.16666667 -0.16666667       0.009
   0.50000000  0.50000000  0.33333333       0.009
   0.00000000  0.16666667  0.50000000       0.009
  -0.16666667  0.33333333 -0.16666667       0.009
   0.33333333  0.50000000  0.50000000       0.009
   0.50000000  0.00000000  0.16666667       0.009
  -0.33333333  0.16666667  0.00000000       0.009
   0.00000000 -0.33333333  0.16666667       0.009
   0.16666667  0.00000000 -0.33333333       0.009
   0.16666667  0.16666667  0.50000000       0.009
  -0.33333333  0.50000000 -0.33333333       0.009
   0.16666667 -0.33333333  0.00000000       0.009
   0.50000000 -0.16666667 -0.16666667       0.009
  -0.33333333 -0.33333333  0.50000000       0.009
   0.00000000  0.16666667 -0.33333333       0.009
  -0.16666667  0.50000000 -0.16666667       0.009
   0.50000000 -0.33333333 -0.33333333       0.009
  -0.33333333  0.00000000  0.16666667       0.009
  -0.16666667  0.16666667  0.00000000       0.009
   0.00000000 -0.16666667  0.16666667       0.009
   0.16666667  0.00000000 -0.16666667       0.009
   0.16666667  0.16666667  0.33333333       0.009
  -0.16666667 -0.33333333 -0.16666667       0.009
  -0.33333333 -0.16666667 -0.16666667       0.009
   0.33333333  0.33333333  0.00000000       0.009
   0.00000000  0.33333333  0.33333333       0.009
   0.33333333  0.00000000  0.33333333       0.009
   0.50000000  0.33333333  0.00000000       0.009
   0.00000000  0.50000000  0.33333333       0.009
   0.33333333  0.00000000  0.50000000       0.009
   0.33333333  0.33333333 -0.16666667       0.009
   0.50000000  0.16666667  0.50000000       0.009
   0.33333333  0.50000000  0.00000000       0.009
   0.16666667 -0.33333333 -0.33333333       0.009
   0.50000000  0.50000000  0.16666667       0.009
   0.00000000  0.33333333  0.50000000       0.009
  -0.33333333  0.16666667 -0.33333333       0.009
   0.16666667  0.50000000  0.50000000       0.009
   0.50000000  0.00000000  0.33333333       0.009
  -0.33333333  0.33333333  0.00000000       0.009
   0.00000000 -0.33333333  0.33333333       0.009
   0.33333333  0.00000000 -0.33333333       0.009
   0.33333333  0.33333333 -0.33333333       0.009
  -0.33333333  0.33333333 -0.33333333       0.009
   0.33333333 -0.33333333 -0.33333333       0.009
   0.50000000  0.50000000  0.00000000       0.005
   0.00000000  0.50000000  0.50000000       0.005
   0.50000000  0.00000000  0.50000000       0.005
   0.50000000  0.33333333  0.16666667       0.009
   0.16666667  0.50000000  0.33333333       0.009
   0.33333333  0.16666667  0.50000000       0.009
   0.33333333  0.16666667 -0.16666667       0.009
   0.50000000  0.16666667  0.33333333       0.009
   0.16666667 -0.33333333 -0.16666667       0.009
   0.16666667  0.33333333 -0.16666667       0.009
   0.16666667 -0.16666667 -0.33333333       0.009
   0.33333333  0.50000000  0.16666667       0.009
  -0.16666667  0.16666667 -0.33333333       0.009
  -0.33333333  0.16666667 -0.16666667       0.009
   0.16666667  0.33333333  0.50000000       0.009
  -0.33333333  0.33333333  0.16666667       0.009
   0.16666667 -0.33333333  0.33333333       0.009
   0.33333333  0.16666667 -0.33333333       0.009
  -0.33333333  0.33333333  0.50000000       0.009
   0.16666667  0.50000000 -0.16666667       0.009
   0.33333333 -0.16666667 -0.33333333       0.009
   0.50000000 -0.33333333  0.33333333       0.009
  -0.16666667  0.16666667  0.50000000       0.009
  -0.33333333  0.33333333 -0.16666667       0.009
   0.33333333  0.50000000 -0.33333333       0.009
   0.50000000 -0.16666667  0.16666667       0.009
  -0.16666667 -0.33333333  0.33333333       0.009
  -0.33333333  0.50000000  0.16666667       0.009
   0.16666667 -0.33333333  0.50000000       0.009
   0.50000000  0.16666667 -0.33333333       0.009
   0.50000000  0.33333333 -0.16666667       0.009
  -0.33333333  0.16666667  0.50000000       0.009
   0.16666667  0.50000000 -0.33333333       0.009
 
 position of ions in fractional coordinates (direct lattice) 
   0.00000000  0.00000000  0.00000000
 
 position of ions in cartesian coordinates  (Angst):
   0.00000000  0.00000000  0.00000000
 


--------------------------------------------------------------------------------------------------------


 k-point   1 :   0.0000 0.0000 0.0000  plane waves:     331
 k-point   2 :   0.1667 0.0000 0.0000  plane waves:     311
 k-point   3 :   0.0000 0.1667 0.0000  plane waves:     311
 k-point   4 :   0.0000 0.0000 0.1667  plane waves:     311
 k-point   5 :   0.1667 0.1667 0.1667  plane waves:     311
 k-point   6 :   0.3333 0.0000 0.0000  plane waves:     308
 k-point   7 :   0.0000 0.3333 0.0000  plane waves:     308
 k-point   8 :   0.0000 0.0000 0.3333  plane waves:     308
 k-point   9 :   0.3333 0.3333 0.3333  plane waves:     308
 k-point  10 :   0.5000 0.0000 0.0000  plane waves:     302
 k-point  11 :   0.0000 0.5000 0.0000  plane waves:     302
 k-point  12 :   0.0000 0.0000 0.5000  plane waves:     302
 k-point  13 :   0.5000 0.5000 0.5000  plane waves:     302
 k-point  14 :   0.1667 0.1667 0.0000  plane waves:     307
 k-point  15 :   0.0000 0.1667 0.1667  plane waves:     307
 k-point  16 :   0.1667 0.0000 0.1667  plane waves:     307
 k-point  17 :   0.3333 0.1667 0.0000  plane waves:     305
 k-point  18 :   0.0000 0.3333 0.1667  plane waves:     305
 k-point  19 :   0.1667 0.0000 0.3333  plane waves:     305
 k-point  20 :   0.1667 0.1667-0.1667  plane waves:     305
 k-point  21 :   0.3333 0.1667 0.3333  plane waves:     305
 k-point  22 :   0.1667 0.3333 0.0000  plane waves:     305
 k-point  23 :   0.1667-0.1667-0.1667  plane waves:     305
 k-point  24 :   0.3333 0.3333 0.1667  plane waves:     305
 k-point  25 :   0.0000 0.1667 0.3333  plane waves:     305
 k-point  26 :  -0.1667 0.1667-0.1667  plane waves:     305
 k-point  27 :   0.1667 0.3333 0.3333  plane waves:     305
 k-point  28 :   0.3333 0.0000 0.1667  plane waves:     305
 k-point  29 :   0.5000 0.1667 0.0000  plane waves:     307
 k-point  30 :   0.0000 0.5000 0.1667  plane waves:     307
 k-point  31 :   0.1667 0.0000 0.5000  plane waves:     307
 k-point  32 :   0.1667 0.1667-0.3333  plane waves:     307
 k-point  33 :   0.5000 0.3333 0.5000  plane waves:     307
 k-point  34 :   0.1667 0.5000 0.0000  plane waves:     307
 k-point  35 :   0.3333-0.1667-0.1667  plane waves:     307
 k-point  36 :   0.5000 0.5000 0.3333  plane waves:     307
 k-point  37 :   0.0000 0.1667 0.5000  plane waves:     307
 k-point  38 :  -0.1667 0.3333-0.1667  plane waves:     307
 k-point  39 :   0.3333 0.5000 0.5000  plane waves:     307
 k-point  40 :   0.5000 0.0000 0.1667  plane waves:     307
 k-point  41 :  -0.3333 0.1667 0.0000  plane waves:     308
 k-point  42 :   0.0000-0.3333 0.1667  plane waves:     308
 k-point  43 :   0.1667 0.0000-0.3333  plane waves:     308
 k-point  44 :   0.1667 0.1667 0.5000  plane waves:     308
 k-point  45 :  -0.3333 0.5000-0.3333  plane waves:     308
 k-point  46 :   0.1667-0.3333 0.0000  plane waves:     308
 k-point  47 :   0.5000-0.1667-0.1667  plane waves:     308
 k-point  48 :  -0.3333-0.3333 0.5000  plane waves:     308
 k-point  49 :   0.0000 0.1667-0.3333  plane waves:     308
 k-point  50 :  -0.1667 0.5000-0.1667  plane waves:     308
 k-point  51 :   0.5000-0.3333-0.3333  plane waves:     308
 k-point  52 :  -0.3333 0.0000 0.1667  plane waves:     308
 k-point  53 :  -0.1667 0.1667 0.0000  plane waves:     303
 k-point  54 :   0.0000-0.1667 0.1667  plane waves:     303
 k-point  55 :   0.1667 0.0000-0.1667  plane waves:     303
 k-point  56 :   0.1667 0.1667 0.3333  plane waves:     303
 k-point  57 :  -0.1667-0.3333-0.1667  plane waves:     303
 k-point  58 :  -0.3333-0.1667-0.1667  plane waves:     303
 k-point  59 :   0.3333 0.3333 0.0000  plane waves:     310
 k-point  60 :   0.0000 0.3333 0.3333  plane waves:     310
 k-point  61 :   0.3333 0.0000 0.3333  plane waves:     310
 k-point  62 :   0.5000 0.3333 0.0000  plane waves:     311
 k-point  63 :   0.0000 0.5000 0.3333  plane waves:     311
 k-point  64 :   0.3333 0.0000 0.5000  plane waves:     311
 k-point  65 :   0.3333 0.3333-0.1667  plane waves:     311
 k-point  66 :   0.5000 0.1667 0.5000  plane waves:     311
 k-point  67 :   0.3333 0.5000 0.0000  plane waves:     311
 k-point  68 :   0.1667-0.3333-0.3333  plane waves:     311
 k-point  69 :   0.5000 0.5000 0.1667  plane waves:     311
 k-point  70 :   0.0000 0.3333 0.5000  plane waves:     311
 k-point  71 :  -0.3333 0.1667-0.3333  plane waves:     311
 k-point  72 :   0.1667 0.5000 0.5000  plane waves:     311
 k-point  73 :   0.5000 0.0000 0.3333  plane waves:     311
 k-point  74 :  -0.3333 0.3333 0.0000  plane waves:     309
 k-point  75 :   0.0000-0.3333 0.3333  plane waves:     309
 k-point  76 :   0.3333 0.0000-0.3333  plane waves:     309
 k-point  77 :   0.3333 0.3333-0.3333  plane waves:     309
 k-point  78 :  -0.3333 0.3333-0.3333  plane waves:     309
 k-point  79 :   0.3333-0.3333-0.3333  plane waves:     309
 k-point  80 :   0.5000 0.5000 0.0000  plane waves:     302
 k-point  81 :   0.0000 0.5000 0.5000  plane waves:     302
 k-point  82 :   0.5000 0.0000 0.5000  plane waves:     302
 k-point  83 :   0.5000 0.3333 0.1667  plane waves:     305
 k-point  84 :   0.1667 0.5000 0.3333  plane waves:     305
 k-point  85 :   0.3333 0.1667 0.5000  plane waves:     305
 k-point  86 :   0.3333 0.1667-0.1667  plane waves:     305
 k-point  87 :   0.5000 0.1667 0.3333  plane waves:     305
 k-point  88 :   0.1667-0.3333-0.1667  plane waves:     305
 k-point  89 :   0.1667 0.3333-0.1667  plane waves:     305
 k-point  90 :   0.1667-0.1667-0.3333  plane waves:     305
 k-point  91 :   0.3333 0.5000 0.1667  plane waves:     305
 k-point  92 :  -0.1667 0.1667-0.3333  plane waves:     305
 k-point  93 :  -0.3333 0.1667-0.1667  plane waves:     305
 k-point  94 :   0.1667 0.3333 0.5000  plane waves:     305
 k-point  95 :  -0.3333 0.3333 0.1667  plane waves:     304
 k-point  96 :   0.1667-0.3333 0.3333  plane waves:     304
 k-point  97 :   0.3333 0.1667-0.3333  plane waves:     304
 k-point  98 :  -0.3333 0.3333 0.5000  plane waves:     304
 k-point  99 :   0.1667 0.5000-0.1667  plane waves:     304
 k-point 100 :   0.3333-0.1667-0.3333  plane waves:     304
 k-point 101 :   0.5000-0.3333 0.3333  plane waves:     304
 k-point 102 :  -0.1667 0.1667 0.5000  plane waves:     304
 k-point 103 :  -0.3333 0.3333-0.1667  plane waves:     304
 k-point 104 :   0.3333 0.5000-0.3333  plane waves:     304
 k-point 105 :   0.5000-0.1667 0.1667  plane waves:     304
 k-point 106 :  -0.1667-0.3333 0.3333  plane waves:     304
 k-point 107 :  -0.3333 0.5000 0.1667  plane waves:     308
 k-point 108 :   0.1667-0.3333 0.5000  plane waves:     308
 k-point 109 :   0.5000 0.1667-0.3333  plane waves:     308
 k-point 110 :   0.5000 0.3333-0.1667  plane waves:     308
 k-point 111 :  -0.3333 0.1667 0.5000  plane waves:     308
 k-point 112 :   0.1667 0.5000-0.3333  plane waves:     308

 maximum and minimum number of plane-waves per node :        92       63

 maximum number of plane-waves:       331
 maximum index in each direction: 
   IXMAX=    5   IYMAX=    5   IZMAX=    5
   IXMIN=   -5   IYMIN=   -5   IZMIN=   -5


 parallel 3D FFT for wavefunctions:
    minimum data exchange during FFTs selected (reduces bandwidth)
 parallel 3D FFT for charge:
    minimum data exchange during FFTs selected (reduces bandwidth)


 total amount of memory used by VASP MPI-rank0    32121. kBytes
=======================================================================

   base      :      30000. kBytes
   nonl-proj :       1356. kBytes
   fftplans  :         80. kBytes
   grid      :        111. kBytes
   one-center:         15. kBytes
   wavefun   :        559. kBytes
 
     INWAV:  cpu time    0.0000: real time    0.0000
 Broyden mixing: mesh for mixing (old mesh)
   NGX =  9   NGY =  9   NGZ =  9
  (NGX  = 28   NGY  = 28   NGZ  = 28)
  gives a total of    729 points

 initial charge density was supplied:
 charge density of overlapping atoms calculated
 number of electron      10.0000000 magnetization 
 keeping initial charge density in first step


--------------------------------------------------------------------------------------------------------


 Maximum index for augmentation-charges           686 (set IRDMAX)


--------------------------------------------------------------------------------------------------------


 First call to EWALD:  gamma=   0.708
 Maximum number of real-space cells 3x 3x 3
 Maximum number of reciprocal cells 3x 3x 3

    FEWALD:  cpu time    0.0009: real time    0.0009


--------------------------------------- Iteration      1(   1)  ---------------------------------------


    POTLOK:  cpu time    0.0039: real time    0.0039
    SETDIJ:  cpu time    0.0052: real time    0.0052
     EDDAV:  cpu time    0.4494: real time    0.4534
       DOS:  cpu time    0.0015: real time    0.0015
    --------------------------------------------
      LOOP:  cpu time    0.4600: real time    0.4640

 eigenvalue-minimisations  :  2856
 total energy-change (2. order) : 0.3384495E+02  (-0.4535876E+03)
 number of electron      10.0000000 magnetization 
 augmentation part       10.0000000 magnetization 

 Free energy of the ion-electron system (eV)
  ---------------------------------------------------
  alpha Z        PSCENC =        60.48881089
  Ewald energy   TEWEN  =      -830.22168716
  -Hartree energ DENC   =       -75.19307098
  -exchange      EXHF   =         0.00000000
  -V(xc)+E(xc)   XCENC  =         3.36136989
  PAW double counting   =       696.70595042     -667.45827301
  entropy T*S    EENTRO =        -0.00088302
  eigenvalues    EBANDS =       117.84351888
  atomic energy  EATOM  =       728.31920932
  Solvation  Ediel_sol  =         0.00000000
  ---------------------------------------------------
  free energy    TOTEN  =        33.84494524 eV

  energy without entropy =       33.84582826  energy(sigma->0) =       33.84538675


--------------------------------------------------------------------------------------------------------




--------------------------------------- Iteration      1(   2)  ---------------------------------------


     EDDAV:  cpu time    0.4696: real time    0.4732
       DOS:  cpu time    0.0015: real time    0.0015
    --------------------------------------------
      LOOP:  cpu time    0.4711: real time    0.4747

 eigenvalue-minimisations  :  3220
 total energy-change (2. order) :-0.3923140E+02  (-0.3750279E+02)
 number of electron      10.0000000 magnetization 
 augmentation part       10.0000000 magnetization 

 Free energy of the ion-electron system (eV)
  ---------------------------------------------------
  alpha Z        PSCENC =        60.48881089
  Ewald energy   TEWEN  =      -830.22168716
  -Hartree energ DENC   =       -75.19307098
  -exchange      EXHF   =         0.00000000
  -V(xc)+E(xc)   XCENC  =         3.36136989
  PAW double counting   =       696.70595042     -667.45827301
  entropy T*S    EENTRO =        -0.00157795
  eigenvalues    EBANDS =        78.61281730
  atomic energy  EATOM  =       728.31920932
  Solvation  Ediel_sol  =         0.00000000
  ---------------------------------------------------
  free energy    TOTEN  =        -5.38645128 eV

  energy without entropy =       -5.38487333  energy(sigma->0) =       -5.38566230


--------------------------------------------------------------------------------------------------------




--------------------------------------- Iteration      1(   3)  ---------------------------------------


     EDDAV:  cpu time    0.4889: real time    0.4899
       DOS:  cpu time    0.0015: real time    0.0015
    --------------------------------------------
      LOOP:  cpu time    0.4904: real time    0.4913

 eigenvalue-minimisations  :  3268
 total energy-change (2. order) :-0.5190930E+00  (-0.5181783E+00)
 number of electron      10.0000000 magnetization 
 augmentation part       10.0000000 magnetization 

 Free energy of the ion-electron system (eV)
  ---------------------------------------------------
  alpha Z        PSCENC =        60.48881089
  Ewald energy   TEWEN  =      -830.22168716
  -Hartree energ DENC   =       -75.19307098
  -exchange      EXHF   =         0.00000000
  -V(xc)+E(xc)   XCENC  =         3.36136989
  PAW double counting   =       696.70595042     -667.45827301
  entropy T*S    EENTRO =        -0.00187155
  eigenvalues    EBANDS =        78.09401791
  atomic energy  EATOM  =       728.31920932
  Solvation  Ediel_sol  =         0.00000000
  ---------------------------------------------------
  free energy    TOTEN  =        -5.90554426 eV

  energy without entropy =       -5.90367271  energy(sigma->0) =       -5.90460849


--------------------------------------------------------------------------------------------------------




--------------------------------------- Iteration      1(   4)  ---------------------------------------


     EDDAV:  cpu time    0.4808: real time    0.4817
       DOS:  cpu time    0.0015: real time    0.0015
    --------------------------------------------
      LOOP:  cpu time    0.4823: real time    0.4831

 eigenvalue-minimisations  :  3316
 total energy-change (2. order) :-0.2120373E-02  (-0.2120181E-02)
 number of electron      10.0000000 magnetization 
 augmentation part       10.0000000 magnetization 

 Free energy of the ion-electron system (eV)
  ---------------------------------------------------
  alpha Z        PSCENC =        60.48881089
  Ewald energy   TEWEN  =      -830.22168716
  -Hartree energ DENC   =       -75.19307098
  -exchange      EXHF   =         0.00000000
  -V(xc)+E(xc)   XCENC  =         3.36136989
  PAW double counting   =       696.70595042     -667.45827301
  entropy T*S    EENTRO =        -0.00187505
  eigenvalues    EBANDS =        78.09190104
  atomic energy  EATOM  =       728.31920932
  Solvation  Ediel_sol  =         0.00000000
  ---------------------------------------------------
  free energy    TOTEN  =        -5.90766463 eV

  energy without entropy =       -5.90578958  energy(sigma->0) =       -5.90672711


--------------------------------------------------------------------------------------------------------




--------------------------------------- Iteration      1(   5)  ---------------------------------------


     EDDAV:  cpu time    0.4922: real time    0.4958
       DOS:  cpu time    0.0016: real time    0.0016
    CHARGE:  cpu time    0.0088: real time    0.0088
    MIXING:  cpu time    0.0002: real time    0.0002
    --------------------------------------------
      LOOP:  cpu time    0.5028: real time    0.5064

 eigenvalue-minimisations  :  3376
 total energy-change (2. order) :-0.1765753E-04  (-0.1765808E-04)
 number of electron       9.9999990 magnetization 
 augmentation part        2.9344590 magnetization 

 Broyden mixing:
  rms(total) = 0.10937E+01    rms(broyden)= 0.10937E+01
  rms(prec ) = 0.18013E+01
  weight for this iteration     100.00

 Free energy of the ion-electron system (eV)
  ---------------------------------------------------
  alpha Z        PSCENC =        60.48881089
  Ewald energy   TEWEN  =      -830.22168716
  -Hartree energ DENC   =       -75.19307098
  -exchange      EXHF   =         0.00000000
  -V(xc)+E(xc)   XCENC  =         3.36136989
  PAW double counting   =       696.70595042     -667.45827301
  entropy T*S    EENTRO =        -0.00187509
  eigenvalues    EBANDS =        78.09188342
  atomic energy  EATOM  =       728.31920932
  Solvation  Ediel_sol  =         0.00000000
  ---------------------------------------------------
  free energy    TOTEN  =        -5.90768229 eV

  energy without entropy =       -5.90580720  energy(sigma->0) =       -5.90674475


--------------------------------------------------------------------------------------------------------




--------------------------------------- Iteration      1(   6)  ---------------------------------------


    POTLOK:  cpu time    0.0034: real time    0.0035
    SETDIJ:  cpu time    0.0042: real time    0.0042
     EDDAV:  cpu time    0.4473: real time    0.4551
       DOS:  cpu time    0.0015: real time    0.0015
    CHARGE:  cpu time    0.0085: real time    0.0085
    MIXING:  cpu time    0.0003: real time    0.0003
    --------------------------------------------
      LOOP:  cpu time    0.4652: real time    0.4731

 eigenvalue-minimisations  :  2972
 total energy-change (2. order) : 0.3146156E+00  (-0.6667974E-01)
 number of electron       9.9999989 magnetization 
 augmentation part        3.0515678 magnetization 

 Broyden mixing:
  rms(total) = 0.58290E+00    rms(broyden)= 0.58290E+00
  rms(prec ) = 0.74312E+00
  weight for this iteration     100.00

 eigenvalues of (default mixing * dielectric matrix)
  average eigenvalue GAMMA=   1.9963
  1.9963

 Free energy of the ion-electron system (eV)
  ---------------------------------------------------
  alpha Z        PSCENC =        60.48881089
  Ewald energy   TEWEN  =      -830.22168716
  -Hartree energ DENC   =       -68.35629901
  -exchange      EXHF   =         0.00000000
  -V(xc)+E(xc)   XCENC  =         3.14049438
  PAW double counting   =       777.56509973     -749.79039388
  entropy T*S    EENTRO =        -0.00223435
  eigenvalues    EBANDS =        73.26393334
  atomic energy  EATOM  =       728.31920932
  Solvation  Ediel_sol  =         0.00000000
  ---------------------------------------------------
  free energy    TOTEN  =        -5.59306674 eV

  energy without entropy =       -5.59083239  energy(sigma->0) =       -5.59194956


--------------------------------------------------------------------------------------------------------




--------------------------------------- Iteration      1(   7)  ---------------------------------------


    POTLOK:  cpu time    0.0032: real time    0.0033
    SETDIJ:  cpu time    0.0037: real time    0.0037
     EDDAV:  cpu time    0.4616: real time    0.4659
       DOS:  cpu time    0.0016: real time    0.0016
    CHARGE:  cpu time    0.0082: real time    0.0084
    MIXING:  cpu time    0.0003: real time    0.0003
    --------------------------------------------
      LOOP:  cpu time    0.4785: real time    0.4831

 eigenvalue-minimisations  :  3132
 total energy-change (2. order) : 0.3620030E-01  (-0.1356111E-01)
 number of electron       9.9999989 magnetization 
 augmentation part        3.1048426 magnetization 

 Broyden mixing:
  rms(total) = 0.22912E+00    rms(broyden)= 0.22912E+00
  rms(prec ) = 0.23319E+00
  weight for this iteration     100.00

 eigenvalues of (default mixing * dielectric matrix)
  average eigenvalue GAMMA=   2.2069
  1.3761  3.0378

 Free energy of the ion-electron system (eV)
  ---------------------------------------------------
  alpha Z        PSCENC =        60.48881089
  Ewald energy   TEWEN  =      -830.22168716
  -Hartree energ DENC   =       -65.02046915
  -exchange      EXHF   =         0.00000000
  -V(xc)+E(xc)   XCENC  =         3.03603123
  PAW double counting   =       854.80733636     -828.09823511
  entropy T*S    EENTRO =        -0.00222806
  eigenvalues    EBANDS =        71.13436523
  atomic energy  EATOM  =       728.31920932
  Solvation  Ediel_sol  =         0.00000000
  ---------------------------------------------------
  free energy    TOTEN  =        -5.55686644 eV

  energy without entropy =       -5.55463838  energy(sigma->0) =       -5.55575241


--------------------------------------------------------------------------------------------------------




--------------------------------------- Iteration      1(   8)  ---------------------------------------


    POTLOK:  cpu time    0.0032: real time    0.0032
    SETDIJ:  cpu time    0.0036: real time    0.0037
     EDDAV:  cpu time    0.4380: real time    0.4447
       DOS:  cpu time    0.0015: real time    0.0015
    CHARGE:  cpu time    0.0079: real time    0.0080
    MIXING:  cpu time    0.0003: real time    0.0003
    --------------------------------------------
      LOOP:  cpu time    0.4546: real time    0.4615

 eigenvalue-minimisations  :  2896
 total energy-change (2. order) : 0.2512810E-02  (-0.4863172E-03)
 number of electron       9.9999989 magnetization 
 augmentation part        3.0988562 magnetization 

 Broyden mixing:
  rms(total) = 0.61082E-01    rms(broyden)= 0.61082E-01
  rms(prec ) = 0.61387E-01
  weight for this iteration     100.00

 eigenvalues of (default mixing * dielectric matrix)
  average eigenvalue GAMMA=   1.5991
  2.6137  0.8135  1.3700

 Free energy of the ion-electron system (eV)
  ---------------------------------------------------
  alpha Z        PSCENC =        60.48881089
  Ewald energy   TEWEN  =      -830.22168716
  -Hartree energ DENC   =       -64.75911389
  -exchange      EXHF   =         0.00000000
  -V(xc)+E(xc)   XCENC  =         3.02700927
  PAW double counting   =       913.01650184     -886.87864346
  entropy T*S    EENTRO =        -0.00219681
  eigenvalues    EBANDS =        71.45575637
  atomic energy  EATOM  =       728.31920932
  Solvation  Ediel_sol  =         0.00000000
  ---------------------------------------------------
  free energy    TOTEN  =        -5.55435363 eV

  energy without entropy =       -5.55215682  energy(sigma->0) =       -5.55325523


--------------------------------------------------------------------------------------------------------




--------------------------------------- Iteration      1(   9)  ---------------------------------------


    POTLOK:  cpu time    0.0033: real time    0.0033
    SETDIJ:  cpu time    0.0037: real time    0.0037
     EDDAV:  cpu time    0.4611: real time    0.4658
       DOS:  cpu time    0.0020: real time    0.0020
    CHARGE:  cpu time    0.0080: real time    0.0080
    MIXING:  cpu time    0.0003: real time    0.0003
    --------------------------------------------
      LOOP:  cpu time    0.4783: real time    0.4831

 eigenvalue-minimisations  :  3088
 total energy-change (2. order) : 0.2393137E-03  (-0.1164044E-04)
 number of electron       9.9999989 magnetization 
 augmentation part        3.0999107 magnetization 

 Broyden mixing:
  rms(total) = 0.77052E-02    rms(broyden)= 0.77051E-02
  rms(prec ) = 0.80161E-02
  weight for this iteration     100.00

 eigenvalues of (default mixing * dielectric matrix)
  average eigenvalue GAMMA=   1.9863
  0.9917  1.3524  3.0342  2.5669

 Free energy of the ion-electron system (eV)
  ---------------------------------------------------
  alpha Z        PSCENC =        60.48881089
  Ewald energy   TEWEN  =      -830.22168716
  -Hartree energ DENC   =       -64.81890693
  -exchange      EXHF   =         0.00000000
  -V(xc)+E(xc)   XCENC  =         3.02904341
  PAW double counting   =       902.59509930     -876.34132020
  entropy T*S    EENTRO =        -0.00220357
  eigenvalues    EBANDS =        71.39784062
  atomic energy  EATOM  =       728.31920932
  Solvation  Ediel_sol  =         0.00000000
  ---------------------------------------------------
  free energy    TOTEN  =        -5.55411432 eV

  energy without entropy =       -5.55191075  energy(sigma->0) =       -5.55301253


--------------------------------------------------------------------------------------------------------




--------------------------------------- Iteration      1(  10)  ---------------------------------------


    POTLOK:  cpu time    0.0032: real time    0.0032
    SETDIJ:  cpu time    0.0037: real time    0.0037
     EDDAV:  cpu time    0.3109: real time    0.3140
       DOS:  cpu time    0.0015: real time    0.0015
    --------------------------------------------
      LOOP:  cpu time    0.3193: real time    0.3224

 eigenvalue-minimisations  :  1476
 total energy-change (2. order) :-0.1586972E-07  (-0.5107756E-06)
 number of electron       9.9999989 magnetization 
 augmentation part        3.0999107 magnetization 

 Free energy of the ion-electron system (eV)
  ---------------------------------------------------
  alpha Z        PSCENC =        60.48881089
  Ewald energy   TEWEN  =      -830.22168716
  -Hartree energ DENC   =       -64.82991922
  -exchange      EXHF   =         0.00000000
  -V(xc)+E(xc)   XCENC  =         3.02942307
  PAW double counting   =       902.67226527     -876.39056707
  entropy T*S    EENTRO =        -0.00220160
  eigenvalues    EBANDS =        71.38055216
  atomic energy  EATOM  =       728.31920932
  Solvation  Ediel_sol  =         0.00000000
  ---------------------------------------------------
  free energy    TOTEN  =        -5.55411433 eV

  energy without entropy =       -5.55191274  energy(sigma->0) =       -5.55301353


--------------------------------------------------------------------------------------------------------




 average (electrostatic) potential at core
  the test charge radii are     1.2059
  (the norm of the test charge is              1.0000)
       1 -63.5822
 
 
 
 E-fermi :  10.5563     XC(G=0): -13.1938     alpha+bet :-15.9438

 Fermi energy:        10.5562850483

 k-point     1 :       0.0000    0.0000    0.0000
  band No.  band energies     occupation 
      1       0.8446      2.00000
      2       7.0001      2.00000
      3       7.0002      2.00000
      4       7.0002      2.00000
      5       9.0047      2.00000
      6       9.0047      2.00000
      7      25.3051      0.00000
      8      30.0558      0.00000
      9      30.0561      0.00000
     10      30.0561      0.00000
     11      35.2472      0.00000
     12      41.8013      0.00000

 k-point     2 :       0.1667    0.0000    0.0000
  band No.  band energies     occupation 
      1       1.8527      2.00000
      2       6.6696      2.00000
      3       7.3071      2.00000
      4       7.3073      2.00000
      5       8.9122      2.00000
      6       8.9122      2.00000
      7      26.2891      0.00000
      8      26.6599      0.00000
      9      31.5466      0.00000
     10      31.5468      0.00000
     11      34.9866      0.00000
     12      37.5662      0.00000

 k-point     3 :       0.0000    0.1667    0.0000
  band No.  band energies     occupation 
      1       1.8527      2.00000
      2       6.6696      2.00000
      3       7.3071      2.00000
      4       7.3073      2.00000
      5       8.9122      2.00000
      6       8.9122      2.00000
      7      26.2891      0.00000
      8      26.6599      0.00000
      9      31.5466      0.00000
     10      31.5468      0.00000
     11      34.9866      0.00000
     12      37.5662      0.00000

 k-point     4 :       0.0000    0.0000    0.1667
  band No.  band energies     occupation 
      1       1.8527      2.00000
      2       6.6696      2.00000
      3       7.3071      2.00000
      4       7.3073      2.00000
      5       8.9122      2.00000
      6       8.9122      2.00000
      7      26.2891      0.00000
      8      26.6599      0.00000
      9      31.5466      0.00000
     10      31.5468      0.00000
     11      34.9866      0.00000
     12      37.5661      0.00000

 k-point     5 :       0.1667    0.1667    0.1667
  band No.  band energies     occupation 
      1       1.8527      2.00000
      2       6.6696      2.00000
      3       7.3072      2.00000
      4       7.3072      2.00000
      5       8.9123      2.00000
      6       8.9123      2.00000
      7      26.2889      0.00000
      8      26.6599      0.00000
      9      31.5468      0.00000
     10      31.5469      0.00000
     11      34.9865      0.00000
     12      37.5661      0.00000

 k-point     6 :       0.3333    0.0000    0.0000
  band No.  band energies     occupation 
      1       3.4878      2.00000
      2       7.1882      2.00000
      3       7.1883      2.00000
      4       7.5160      2.00000
      5       9.7570      2.00000
      6       9.7571      2.00000
      7      20.5998      0.00000
      8      25.9756      0.00000
      9      31.5162      0.00000
     10      31.5164      0.00000
     11      35.2710      0.00000
     12      35.8339      0.00000

 k-point     7 :       0.0000    0.3333    0.0000
  band No.  band energies     occupation 
      1       3.4878      2.00000
      2       7.1882      2.00000
      3       7.1883      2.00000
      4       7.5160      2.00000
      5       9.7570      2.00000
      6       9.7571      2.00000
      7      20.5998      0.00000
      8      25.9756      0.00000
      9      31.5162      0.00000
     10      31.5164      0.00000
     11      35.2710      0.00000
     12      35.8339      0.00000

 k-point     8 :       0.0000    0.0000    0.3333
  band No.  band energies     occupation 
      1       3.4878      2.00000
      2       7.1882      2.00000
      3       7.1883      2.00000
      4       7.5160      2.00000
      5       9.7570      2.00000
      6       9.7571      2.00000
      7      20.5998      0.00000
      8      25.9756      0.00000
      9      31.5162      0.00000
     10      31.5164      0.00000
     11      35.2710      0.00000
     12      35.8340      0.00000

 k-point     9 :       0.3333    0.3333    0.3333
  band No.  band energies     occupation 
      1       3.4878      2.00000
      2       7.1883      2.00000
      3       7.1883      2.00000
      4       7.5160      2.00000
      5       9.7571      2.00000
      6       9.7571      2.00000
      7      20.5996      0.00000
      8      25.9756      0.00000
      9      31.5164      0.00000
     10      31.5164      0.00000
     11      35.2709      0.00000
     12      35.8340      0.00000

 k-point    10 :       0.5000    0.0000    0.0000
  band No.  band energies     occupation 
      1       3.6688      2.00000
      2       6.9458      2.00000
      3       6.9459      2.00000
      4      10.2903      2.00000
      5      10.5552      1.02543
      6      10.5552      1.02416
      7      16.1014      0.00000
      8      24.8654      0.00000
      9      29.2811      0.00000
     10      29.2813      0.00000
     11      38.2529      0.00000
     12      38.2529      0.00000

 k-point    11 :       0.0000    0.5000    0.0000
  band No.  band energies     occupation 
      1       3.6688      2.00000
      2       6.9458      2.00000
      3       6.9459      2.00000
      4      10.2903      2.00000
      5      10.5552      1.02540
      6      10.5552      1.02415
      7      16.1014      0.00000
      8      24.8654      0.00000
      9      29.2811      0.00000
     10      29.2813      0.00000
     11      38.2529      0.00000
     12      38.2529      0.00000

 k-point    12 :       0.0000    0.0000    0.5000
  band No.  band energies     occupation 
      1       3.6688      2.00000
      2       6.9458      2.00000
      3       6.9459      2.00000
      4      10.2903      2.00000
      5      10.5552      1.02542
      6      10.5552      1.02414
      7      16.1014      0.00000
      8      24.8654      0.00000
      9      29.2811      0.00000
     10      29.2813      0.00000
     11      38.2529      0.00000
     12      38.2529      0.00000

 k-point    13 :       0.5000    0.5000    0.5000
  band No.  band energies     occupation 
      1       3.6688      2.00000
      2       6.9459      2.00000
      3       6.9459      2.00000
      4      10.2902      2.00000
      5      10.5552      1.02530
      6      10.5552      1.02526
      7      16.1013      0.00000
      8      24.8655      0.00000
      9      29.2813      0.00000
     10      29.2813      0.00000
     11      38.2531      0.00000
     12      38.2531      0.00000

 k-point    14 :       0.1667    0.1667    0.0000
  band No.  band energies     occupation 
      1       2.2015      2.00000
      2       6.2114      2.00000
      3       7.7104      2.00000
      4       7.7105      2.00000
      5       8.1669      2.00000
      6       9.3520      2.00000
      7      27.3036      0.00000
      8      28.2105      0.00000
      9      29.4619      0.00000
     10      29.4620      0.00000
     11      35.8243      0.00000
     12      36.9564      0.00000

 k-point    15 :       0.0000    0.1667    0.1667
  band No.  band energies     occupation 
      1       2.2015      2.00000
      2       6.2113      2.00000
      3       7.7104      2.00000
      4       7.7105      2.00000
      5       8.1669      2.00000
      6       9.3520      2.00000
      7      27.3036      0.00000
      8      28.2105      0.00000
      9      29.4618      0.00000
     10      29.4621      0.00000
     11      35.8243      0.00000
     12      36.9564      0.00000

 k-point    16 :       0.1667    0.0000    0.1667
  band No.  band energies     occupation 
      1       2.2015      2.00000
      2       6.2113      2.00000
      3       7.7104      2.00000
      4       7.7105      2.00000
      5       8.1669      2.00000
      6       9.3520      2.00000
      7      27.3036      0.00000
      8      28.2105      0.00000
      9      29.4619      0.00000
     10      29.4620      0.00000
     11      35.8243      0.00000
     12      36.9565      0.00000

 k-point    17 :       0.3333    0.1667    0.0000
  band No.  band energies     occupation 
      1       3.8681      2.00000
      2       5.8992      2.00000
      3       7.1100      2.00000
      4       8.0142      2.00000
      5       9.5593      2.00000
      6      10.0361      2.00000
      7      23.1133      0.00000
      8      27.4736      0.00000
      9      28.1255      0.00000
     10      30.1172      0.00000
     11      34.3463      0.00000
     12      36.4661      0.00000

 k-point    18 :       0.0000    0.3333    0.1667
  band No.  band energies     occupation 
      1       3.8681      2.00000
      2       5.8992      2.00000
      3       7.1100      2.00000
      4       8.0142      2.00000
      5       9.5593      2.00000
      6      10.0361      2.00000
      7      23.1133      0.00000
      8      27.4736      0.00000
      9      28.1255      0.00000
     10      30.1172      0.00000
     11      34.3463      0.00000
     12      36.4661      0.00000

 k-point    19 :       0.1667    0.0000    0.3333
  band No.  band energies     occupation 
      1       3.8681      2.00000
      2       5.8992      2.00000
      3       7.1100      2.00000
      4       8.0142      2.00000
      5       9.5593      2.00000
      6      10.0361      2.00000
      7      23.1133      0.00000
      8      27.4736      0.00000
      9      28.1255      0.00000
     10      30.1172      0.00000
     11      34.3463      0.00000
     12      36.4661      0.00000

 k-point    20 :       0.1667    0.1667   -0.1667
  band No.  band energies     occupation 
      1       3.8681      2.00000
      2       5.8992      2.00000
      3       7.1100      2.00000
      4       8.0143      2.00000
      5       9.5593      2.00000
      6      10.0361      2.00000
      7      23.1132      0.00000
      8      27.4736      0.00000
      9      28.1257      0.00000
     10      30.1172      0.00000
     11      34.3461      0.00000
     12      36.4662      0.00000

 k-point    21 :       0.3333    0.1667    0.3333
  band No.  band energies     occupation 
      1       3.8680      2.00000
      2       5.8992      2.00000
      3       7.1100      2.00000
      4       8.0142      2.00000
      5       9.5593      2.00000
      6      10.0361      2.00000
      7      23.1131      0.00000
      8      27.4736      0.00000
      9      28.1257      0.00000
     10      30.1172      0.00000
     11      34.3463      0.00000
     12      36.4662      0.00000

 k-point    22 :       0.1667    0.3333    0.0000
  band No.  band energies     occupation 
      1       3.8681      2.00000
      2       5.8992      2.00000
      3       7.1100      2.00000
      4       8.0142      2.00000
      5       9.5593      2.00000
      6      10.0361      2.00000
      7      23.1133      0.00000
      8      27.4736      0.00000
      9      28.1255      0.00000
     10      30.1172      0.00000
     11      34.3463      0.00000
     12      36.4661      0.00000

 k-point    23 :       0.1667   -0.1667   -0.1667
  band No.  band energies     occupation 
      1       3.8681      2.00000
      2       5.8992      2.00000
      3       7.1100      2.00000
      4       8.0143      2.00000
      5       9.5593      2.00000
      6      10.0361      2.00000
      7      23.1132      0.00000
      8      27.4736      0.00000
      9      28.1257      0.00000
     10      30.1172      0.00000
     11      34.3461      0.00000
     12      36.4662      0.00000

 k-point    24 :       0.3333    0.3333    0.1667
  band No.  band energies     occupation 
      1       3.8680      2.00000
      2       5.8992      2.00000
      3       7.1100      2.00000
      4       8.0142      2.00000
      5       9.5593      2.00000
      6      10.0361      2.00000
      7      23.1131      0.00000
      8      27.4736      0.00000
      9      28.1257      0.00000
     10      30.1172      0.00000
     11      34.3463      0.00000
     12      36.4662      0.00000

 k-point    25 :       0.0000    0.1667    0.3333
  band No.  band energies     occupation 
      1       3.8681      2.00000
      2       5.8992      2.00000
      3       7.1100      2.00000
      4       8.0142      2.00000
      5       9.5593      2.00000
      6      10.0361      2.00000
      7      23.1133      0.00000
      8      27.4736      0.00000
      9      28.1255      0.00000
     10      30.1172      0.00000
     11      34.3463      0.00000
     12      36.4661      0.00000

 k-point    26 :      -0.1667    0.1667   -0.1667
  band No.  band energies     occupation 
      1       3.8681      2.00000
      2       5.8992      2.00000
      3       7.1100      2.00000
      4       8.0143      2.00000
      5       9.5593      2.00000
      6      10.0361      2.00000
      7      23.1132      0.00000
      8      27.4736      0.00000
      9      28.1257      0.00000
     10      30.1172      0.00000
     11      34.3461      0.00000
     12      36.4662      0.00000

 k-point    27 :       0.1667    0.3333    0.3333
  band No.  band energies     occupation 
      1       3.8680      2.00000
      2       5.8992      2.00000
      3       7.1100      2.00000
      4       8.0142      2.00000
      5       9.5593      2.00000
      6      10.0361      2.00000
      7      23.1131      0.00000
      8      27.4736      0.00000
      9      28.1257      0.00000
     10      30.1172      0.00000
     11      34.3463      0.00000
     12      36.4662      0.00000

 k-point    28 :       0.3333    0.0000    0.1667
  band No.  band energies     occupation 
      1       3.8681      2.00000
[...]
      1       5.1969      2.00000
      2       5.5862      2.00000
      3       6.5010      2.00000
      4       9.0806      2.00000
      5       9.5697      2.00000
      6      12.4407      0.00000
      7      21.0150      0.00000
      8      22.9851      0.00000
      9      26.0233      0.00000
     10      32.5401      0.00000
     11      32.5545      0.00000
     12      38.4446      0.00000

 k-point    90 :       0.1667   -0.1667   -0.3333
  band No.  band energies     occupation 
      1       5.1969      2.00000
      2       5.5862      2.00000
      3       6.5010      2.00000
      4       9.0806      2.00000
      5       9.5697      2.00000
      6      12.4407      0.00000
      7      21.0150      0.00000
      8      22.9851      0.00000
      9      26.0233      0.00000
     10      32.5401      0.00000
     11      32.5545      0.00000
     12      38.4446      0.00000

 k-point    91 :       0.3333    0.5000    0.1667
  band No.  band energies     occupation 
      1       5.1969      2.00000
      2       5.5862      2.00000
      3       6.5010      2.00000
      4       9.0806      2.00000
      5       9.5697      2.00000
      6      12.4407      0.00000
      7      21.0150      0.00000
      8      22.9851      0.00000
      9      26.0234      0.00000
     10      32.5402      0.00000
     11      32.5545      0.00000
     12      38.4447      0.00000

 k-point    92 :      -0.1667    0.1667   -0.3333
  band No.  band energies     occupation 
      1       5.1969      2.00000
      2       5.5862      2.00000
      3       6.5010      2.00000
      4       9.0806      2.00000
      5       9.5697      2.00000
      6      12.4407      0.00000
      7      21.0150      0.00000
      8      22.9851      0.00000
      9      26.0233      0.00000
     10      32.5401      0.00000
     11      32.5545      0.00000
     12      38.4446      0.00000

 k-point    93 :      -0.3333    0.1667   -0.1667
  band No.  band energies     occupation 
      1       5.1969      2.00000
      2       5.5862      2.00000
      3       6.5010      2.00000
      4       9.0806      2.00000
      5       9.5697      2.00000
      6      12.4407      0.00000
      7      21.0150      0.00000
      8      22.9851      0.00000
      9      26.0233      0.00000
     10      32.5401      0.00000
     11      32.5545      0.00000
     12      38.4446      0.00000

 k-point    94 :       0.1667    0.3333    0.5000
  band No.  band energies     occupation 
      1       5.1969      2.00000
      2       5.5862      2.00000
      3       6.5010      2.00000
      4       9.0806      2.00000
      5       9.5697      2.00000
      6      12.4407      0.00000
      7      21.0150      0.00000
      8      22.9851      0.00000
      9      26.0234      0.00000
     10      32.5402      0.00000
     11      32.5545      0.00000
     12      38.4447      0.00000

 k-point    95 :      -0.3333    0.3333    0.1667
  band No.  band energies     occupation 
      1       5.5369      2.00000
      2       5.6524      2.00000
      3       6.7595      2.00000
      4       8.5776      2.00000
      5      10.3978      1.99999
      6      15.9811      0.00000
      7      16.4698      0.00000
      8      22.5134      0.00000
      9      24.2907      0.00000
     10      31.1907      0.00000
     11      35.4458      0.00000
     12      40.2546      0.00000

 k-point    96 :       0.1667   -0.3333    0.3333
  band No.  band energies     occupation 
      1       5.5369      2.00000
      2       5.6524      2.00000
      3       6.7595      2.00000
      4       8.5776      2.00000
      5      10.3978      1.99999
      6      15.9811      0.00000
      7      16.4698      0.00000
      8      22.5134      0.00000
      9      24.2907      0.00000
     10      31.1907      0.00000
     11      35.4458      0.00000
     12      40.2546      0.00000

 k-point    97 :       0.3333    0.1667   -0.3333
  band No.  band energies     occupation 
      1       5.5369      2.00000
      2       5.6524      2.00000
      3       6.7595      2.00000
      4       8.5776      2.00000
      5      10.3978      1.99999
      6      15.9811      0.00000
      7      16.4698      0.00000
      8      22.5134      0.00000
      9      24.2907      0.00000
     10      31.1907      0.00000
     11      35.4458      0.00000
     12      40.2546      0.00000

 k-point    98 :      -0.3333    0.3333    0.5000
  band No.  band energies     occupation 
      1       5.5369      2.00000
      2       5.6524      2.00000
      3       6.7595      2.00000
      4       8.5776      2.00000
      5      10.3978      1.99999
      6      15.9810      0.00000
      7      16.4697      0.00000
      8      22.5135      0.00000
      9      24.2908      0.00000
     10      31.1908      0.00000
     11      35.4457      0.00000
     12      40.2548      0.00000

 k-point    99 :       0.1667    0.5000   -0.1667
  band No.  band energies     occupation 
      1       5.5370      2.00000
      2       5.6525      2.00000
      3       6.7595      2.00000
      4       8.5775      2.00000
      5      10.3978      1.99999
      6      15.9811      0.00000
      7      16.4698      0.00000
      8      22.5134      0.00000
      9      24.2907      0.00000
     10      31.1907      0.00000
     11      35.4457      0.00000
     12      40.2546      0.00000

 k-point   100 :       0.3333   -0.1667   -0.3333
  band No.  band energies     occupation 
      1       5.5369      2.00000
      2       5.6524      2.00000
      3       6.7595      2.00000
      4       8.5776      2.00000
      5      10.3978      1.99999
      6      15.9811      0.00000
      7      16.4698      0.00000
      8      22.5134      0.00000
      9      24.2907      0.00000
     10      31.1907      0.00000
     11      35.4458      0.00000
     12      40.2546      0.00000

 k-point   101 :       0.5000   -0.3333    0.3333
  band No.  band energies     occupation 
      1       5.5369      2.00000
      2       5.6524      2.00000
      3       6.7595      2.00000
      4       8.5776      2.00000
      5      10.3978      1.99999
      6      15.9810      0.00000
      7      16.4697      0.00000
      8      22.5135      0.00000
      9      24.2908      0.00000
     10      31.1908      0.00000
     11      35.4457      0.00000
     12      40.2547      0.00000

 k-point   102 :      -0.1667    0.1667    0.5000
  band No.  band energies     occupation 
      1       5.5370      2.00000
      2       5.6525      2.00000
      3       6.7595      2.00000
      4       8.5775      2.00000
      5      10.3978      1.99999
      6      15.9811      0.00000
      7      16.4698      0.00000
      8      22.5134      0.00000
      9      24.2907      0.00000
     10      31.1907      0.00000
     11      35.4457      0.00000
     12      40.2546      0.00000

 k-point   103 :      -0.3333    0.3333   -0.1667
  band No.  band energies     occupation 
      1       5.5369      2.00000
      2       5.6524      2.00000
      3       6.7595      2.00000
      4       8.5776      2.00000
      5      10.3978      1.99999
      6      15.9811      0.00000
      7      16.4698      0.00000
      8      22.5134      0.00000
      9      24.2907      0.00000
     10      31.1907      0.00000
     11      35.4458      0.00000
     12      40.2546      0.00000

 k-point   104 :       0.3333    0.5000   -0.3333
  band No.  band energies     occupation 
      1       5.5369      2.00000
      2       5.6524      2.00000
      3       6.7595      2.00000
      4       8.5776      2.00000
      5      10.3978      1.99999
      6      15.9810      0.00000
      7      16.4697      0.00000
      8      22.5135      0.00000
      9      24.2908      0.00000
     10      31.1908      0.00000
     11      35.4457      0.00000
     12      40.2547      0.00000

 k-point   105 :       0.5000   -0.1667    0.1667
  band No.  band energies     occupation 
      1       5.5370      2.00000
      2       5.6525      2.00000
      3       6.7595      2.00000
      4       8.5775      2.00000
      5      10.3978      1.99999
      6      15.9811      0.00000
      7      16.4698      0.00000
      8      22.5134      0.00000
      9      24.2907      0.00000
     10      31.1907      0.00000
     11      35.4457      0.00000
     12      40.2546      0.00000

 k-point   106 :      -0.1667   -0.3333    0.3333
  band No.  band energies     occupation 
      1       5.5369      2.00000
      2       5.6524      2.00000
      3       6.7595      2.00000
      4       8.5776      2.00000
      5      10.3978      1.99999
      6      15.9811      0.00000
      7      16.4698      0.00000
      8      22.5134      0.00000
      9      24.2907      0.00000
     10      31.1907      0.00000
     11      35.4458      0.00000
     12      40.2546      0.00000

 k-point   107 :      -0.3333    0.5000    0.1667
  band No.  band energies     occupation 
      1       4.8272      2.00000
      2       5.2268      2.00000
      3       7.7387      2.00000
      4       9.2603      2.00000
      5      10.9744      0.00000
      6      16.4466      0.00000
      7      17.7049      0.00000
      8      20.4349      0.00000
      9      22.2356      0.00000
     10      33.5864      0.00000
     11      34.4761      0.00000
     12      36.6279      0.00000

 k-point   108 :       0.1667   -0.3333    0.5000
  band No.  band energies     occupation 
      1       4.8272      2.00000
      2       5.2268      2.00000
      3       7.7387      2.00000
      4       9.2603      2.00000
      5      10.9744      0.00000
      6      16.4466      0.00000
      7      17.7049      0.00000
      8      20.4349      0.00000
      9      22.2356      0.00000
     10      33.5864      0.00000
     11      34.4762      0.00000
     12      36.6279      0.00000

 k-point   109 :       0.5000    0.1667   -0.3333
  band No.  band energies     occupation 
      1       4.8272      2.00000
      2       5.2268      2.00000
      3       7.7387      2.00000
      4       9.2603      2.00000
      5      10.9744      0.00000
      6      16.4466      0.00000
      7      17.7049      0.00000
      8      20.4349      0.00000
      9      22.2356      0.00000
     10      33.5864      0.00000
     11      34.4762      0.00000
     12      36.6279      0.00000

 k-point   110 :       0.5000    0.3333   -0.1667
  band No.  band energies     occupation 
      1       4.8272      2.00000
      2       5.2268      2.00000
      3       7.7387      2.00000
      4       9.2603      2.00000
      5      10.9744      0.00000
      6      16.4466      0.00000
      7      17.7049      0.00000
      8      20.4349      0.00000
      9      22.2356      0.00000
     10      33.5864      0.00000
     11      34.4761      0.00000
     12      36.6279      0.00000

 k-point   111 :      -0.3333    0.1667    0.5000
  band No.  band energies     occupation 
      1       4.8272      2.00000
      2       5.2268      2.00000
      3       7.7387      2.00000
      4       9.2603      2.00000
      5      10.9744      0.00000
      6      16.4466      0.00000
      7      17.7049      0.00000
      8      20.4349      0.00000
      9      22.2356      0.00000
     10      33.5864      0.00000
     11      34.4762      0.00000
     12      36.6279      0.00000

 k-point   112 :       0.1667    0.5000   -0.3333
  band No.  band energies     occupation 
      1       4.8272      2.00000
      2       5.2268      2.00000
      3       7.7387      2.00000
      4       9.2603      2.00000
      5      10.9744      0.00000
      6      16.4466      0.00000
      7      17.7049      0.00000
      8      20.4349      0.00000
      9      22.2356      0.00000
     10      33.5864      0.00000
     11      34.4762      0.00000
     12      36.6279      0.00000


--------------------------------------------------------------------------------------------------------


 soft charge-density along one line, spin component            1
         0         1         2         3         4         5         6         7         8         9
 total charge-density along one line
 
 pseudopotential strength for first ion, spin component:            1
 -2.641   0.000  -0.015   0.000   0.009  -2.850   0.000  -0.015
  0.000  -2.641   0.000  -0.017   0.000   0.000  -2.850   0.000
 -0.015   0.000  -2.656   0.000  -0.005  -0.015   0.000  -2.865
  0.000  -0.017   0.000  -2.653   0.000   0.000  -0.017   0.000
  0.009   0.000  -0.005   0.000  -2.662   0.008   0.000  -0.005
 -2.850   0.000  -0.015   0.000   0.008  -3.041   0.000  -0.014
  0.000  -2.850   0.000  -0.017   0.000   0.000  -3.041   0.000
 -0.015   0.000  -2.865   0.000  -0.005  -0.014   0.000  -3.055
  0.000  -0.017   0.000  -2.862   0.000   0.000  -0.016   0.000
  0.008   0.000  -0.005   0.000  -2.871   0.008   0.000  -0.005
 -0.000  -0.000  -0.000  -0.000  -0.000  -0.000  -0.000  -0.000
 -0.000  -0.000  -0.000  -0.000  -0.000  -0.000  -0.000  -0.000
  0.000   0.000   0.000  -0.000   0.000   0.000   0.000   0.000
 -0.000  -0.000   0.000   0.000  -0.000  -0.000  -0.000   0.000
 -0.000  -0.000  -0.000   0.000   0.000  -0.000  -0.000  -0.000
  0.000   0.000   0.000  -0.000   0.000   0.000   0.000   0.000
 -0.000  -0.000   0.000   0.000  -0.000  -0.000  -0.000   0.000
 -0.000  -0.000  -0.000   0.000   0.000  -0.000  -0.000  -0.000
 total augmentation occupancy for first ion, spin component:            1
  4.539   0.000  -0.330   0.000   0.191  -2.920  -0.000   0.072  -0.000  -0.042   0.000  -0.000  -0.000  -0.000   0.000   0.000
  0.000   4.539  -0.000  -0.381  -0.000  -0.000  -2.920   0.000   0.083   0.000   0.000  -0.000   0.000  -0.000   0.000  -0.000
 -0.330  -0.000   4.202  -0.000  -0.117   0.072   0.000  -2.847   0.000   0.025   0.000  -0.000   0.000   0.000  -0.000  -0.000
  0.000  -0.381  -0.000   4.269   0.000  -0.000   0.083   0.000  -2.861  -0.000   0.000  -0.000  -0.000   0.000   0.000   0.000
  0.191  -0.000  -0.117   0.000   4.067  -0.042   0.000   0.025  -0.000  -2.817   0.000   0.000   0.000  -0.000   0.000  -0.000
 -2.920  -0.000   0.072  -0.000  -0.042   3.078   0.000   0.120   0.000  -0.069  -0.000   0.000   0.000  -0.000  -0.000  -0.000
 -0.000  -2.920   0.000   0.083   0.000   0.000   3.078  -0.000   0.139  -0.000  -0.000   0.000  -0.000   0.000  -0.000   0.000
  0.072   0.000  -2.847   0.000   0.025   0.120  -0.000   3.201   0.000   0.042  -0.000   0.000  -0.000  -0.000   0.000  -0.000
 -0.000   0.083   0.000  -2.861  -0.000   0.000   0.139   0.000   3.176   0.000  -0.000   0.000   0.000  -0.000   0.000  -0.000
 -0.042   0.000   0.025  -0.000  -2.817  -0.069  -0.000   0.042   0.000   3.250  -0.000   0.000  -0.000   0.000  -0.000   0.000
  0.000   0.000   0.000   0.000   0.000  -0.000  -0.000  -0.000  -0.000  -0.000   2.560  -0.594  -0.000  -0.000   0.000   0.000
 -0.000  -0.000  -0.000  -0.000   0.000   0.000   0.000   0.000   0.000   0.000  -0.594   0.155  -0.000   0.000  -0.000  -0.000
 -0.000   0.000   0.000  -0.000   0.000   0.000  -0.000  -0.000   0.000  -0.000  -0.000  -0.000   0.296  -0.000  -0.000  -0.019
 -0.000  -0.000   0.000   0.000  -0.000  -0.000   0.000  -0.000  -0.000   0.000  -0.000   0.000  -0.000   0.296  -0.000  -0.000
  0.000   0.000  -0.000   0.000   0.000  -0.000  -0.000   0.000   0.000  -0.000   0.000  -0.000  -0.000  -0.000   0.296   0.000
  0.000  -0.000  -0.000   0.000  -0.000  -0.000   0.000  -0.000  -0.000   0.000   0.000  -0.000  -0.019  -0.000   0.000   0.001
  0.000   0.000  -0.000  -0.000   0.000   0.000  -0.000   0.000   0.000  -0.000  -0.000   0.000  -0.000  -0.019  -0.000   0.000
 -0.000  -0.000   0.000  -0.000  -0.000   0.000   0.000  -0.000  -0.000   0.000   0.000  -0.000  -0.000  -0.000  -0.019   0.000


------------------------ aborting loop because EDIFF is reached ----------------------------------------





 total charge

# of ion       s       p       d       tot
------------------------------------------
    1        0.622   0.572   7.994   9.188
 
    CHARGE:  cpu time    0.0077: real time    0.0078
    FORLOC:  cpu time    0.0001: real time    0.0001
    FORNL :  cpu time    0.0198: real time    0.0201
    FORCOR:  cpu time    0.0065: real time    0.0065
    FORHAR:  cpu time    0.0008: real time    0.0008
    MIXING:  cpu time    0.0003: real time    0.0003
    OFIELD:  cpu time    0.0000: real time    0.0000

 VOLUME and BASIS-vectors are now :
 -----------------------------------------------------------------------------
  energy-cutoff  :      420.00
  volume of cell :       15.72
      direct lattice vectors                 reciprocal lattice vectors
     2.434861000  0.000005000  1.405782000     0.410701802 -0.145205748 -0.000000764
     0.811626000  2.295606000  1.405782000    -0.000000447  0.435615455 -0.000000775
     0.000007000  0.000005000  2.811542000    -0.205352284 -0.145205990  0.355677476

  length of vectors
     2.811542481  2.811541695  2.811542000     0.435615288  0.435615455  0.435615435


 FORCES acting on ions
    electron-ion (+dipol)            ewald-force                    non-local-force                 convergence-correction
 -----------------------------------------------------------------------------------------------
   0.219E-05 -.472E-06 0.572E-05   -.143E-15 -.136E-15 0.967E-15   -.226E-05 -.246E-05 0.159E-05   -.306E-05 0.481E-05 -.117E-04
 -----------------------------------------------------------------------------------------------
   0.219E-05 -.472E-06 0.572E-05   -.143E-15 -.136E-15 0.967E-15   -.226E-05 -.246E-05 0.159E-05   -.306E-05 0.481E-05 -.117E-04
 
 
 POSITION                                       TOTAL-FORCE (eV/Angst)
 -----------------------------------------------------------------------------------
      0.00000      0.00000      0.00000        -0.000003      0.000002     -0.000004
 -----------------------------------------------------------------------------------
    total drift:                               -0.000003      0.000002     -0.000004


--------------------------------------------------------------------------------------------------------



  FREE ENERGIE OF THE ION-ELECTRON SYSTEM (eV)
  ---------------------------------------------------
  free  energy   TOTEN  =        -5.55411433 eV

  energy  without entropy=       -5.55191274  energy(sigma->0) =       -5.55301353
 


--------------------------------------------------------------------------------------------------------


    POTLOK:  cpu time    0.0067: real time    0.0067


--------------------------------------------------------------------------------------------------------


     LOOP+:  cpu time    4.6660: real time    4.7067
    4ORBIT:  cpu time    0.0000: real time    0.0000



 total charge

# of ion       s       p       d       tot
------------------------------------------
    1        0.622   0.572   7.994   9.188
 

 total amount of memory used by VASP MPI-rank0    32121. kBytes
=======================================================================

   base      :      30000. kBytes
   nonl-proj :       1356. kBytes
   fftplans  :         80. kBytes
   grid      :        111. kBytes
   one-center:         15. kBytes
   wavefun   :        559. kBytes
 
  
  
 General timing and accounting informations for this job:
 ========================================================
  
                  Total CPU time used (sec):        5.667
                            User time (sec):        5.459
                          System time (sec):        0.208
                         Elapsed time (sec):       10.879
  
                   Maximum memory used (kb):       52776.
                   Average memory used (kb):          N/A
  
                          Minor page faults:         6285
                          Major page faults:          269
                 Voluntary context switches:         5386
