 running on   16 total cores
 distrk:  each k-point on   16 cores,    1 groups
 distr:  one band on    4 cores,    4 groups
 vasp.6.2.0 18Jan21 (build Feb  1 2022 01:28:57) complex                         
 POSCAR found type information on POSCAR Pt
 POSCAR found :  1 types and       1 ions
 scaLAPACK will be used
 -----------------------------------------------------------------------------
|                                                                             |
|               ----> ADVICE to this user running VASP <----                  |
|                                                                             |
|     You enforced a specific xc type in the INCAR file but a different       |
|     type was found in the POTCAR file.                                      |
|     I HOPE YOU KNOW WHAT YOU ARE DOING!                                     |
|                                                                             |
 -----------------------------------------------------------------------------

 LDA part: xc-table for Pade appr. of Perdew
 -----------------------------------------------------------------------------
|                                                                             |
|           W    W    AA    RRRRR   N    N  II  N    N   GGGG   !!!           |
|           W    W   A  A   R    R  NN   N  II  NN   N  G    G  !!!           |
|           W    W  A    A  R    R  N N  N  II  N N  N  G       !!!           |
|           W WW W  AAAAAA  RRRRR   N  N N  II  N  N N  G  GGG   !            |
|           WW  WW  A    A  R   R   N   NN  II  N   NN  G    G                |
|           W    W  A    A  R    R  N    N  II  N    N   GGGG   !!!           |
|                                                                             |
|     The requested file  could not be found or opened for reading            |
|     k-point information. Automatic k-point generation is used as a          |
|     fallback, which may lead to unwanted results.                           |
|                                                                             |
 -----------------------------------------------------------------------------

 POSCAR, INCAR and KPOINTS ok, starting setup
 FFT: planning ...
 WAVECAR not read
 entering main loop
       N       E                     dE             d eps       ncg     rms          rms(c)
DAV:   1     0.338449452352E+02    0.33845E+02   -0.45359E+03  2856   0.635E+02
DAV:   2    -0.538645128072E+01   -0.39231E+02   -0.37503E+02  3220   0.153E+02
DAV:   3    -0.590554426080E+01   -0.51909E+00   -0.51818E+00  3268   0.162E+01
DAV:   4    -0.590766463362E+01   -0.21204E-02   -0.21202E-02  3316   0.122E+00
DAV:   5    -0.590768229115E+01   -0.17658E-04   -0.17658E-04  3376   0.101E-01    0.109E+01
DAV:   6    -0.559306674113E+01    0.31462E+00   -0.66680E-01  2972   0.622E+00    0.583E+00
DAV:   7    -0.555686644190E+01    0.36200E-01   -0.13561E-01  3132   0.278E+00    0.229E+00
DAV:   8    -0.555435363140E+01    0.25128E-02   -0.48632E-03  2896   0.536E-01    0.611E-01
DAV:   9    -0.555411431768E+01    0.23931E-03   -0.11640E-04  3088   0.869E-02    0.771E-02
DAV:  10    -0.555411433355E+01   -0.15870E-07   -0.51078E-06  1476   0.188E-02
   1 F= -.55541143E+01 E0= -.55530135E+01  d E =-.220160E-02
