<?xml version="1.0" encoding="ISO-8859-1"?>
<modeling>
 <generator>
  <i name="program" type="string">vasp </i>
  <i name="version" type="string">6.2.0  </i>
  <i name="subversion" type="string">18Jan21 (build Feb  1 2022 01:28:57) complex                          parallel </i>
  <i name="platform" type="string">LinuxPGI </i>
  <i name="date" type="string">2022 05 18 </i>
  <i name="time" type="string">19:38:25 </i>
 </generator>
 <incar>
  <i type="string" name="PREC">Normal</i>
  <i type="string" name="ALGO">38</i>
  <i type="int" name="ISPIN">     1</i>
  <i type="int" name="NELM">    60</i>
  <i type="int" name="NELMIN">     4</i>
  <i type="int" name="IBRION">     2</i>
  <i name="EDIFF">      0.00010000</i>
  <i name="EDIFFG">     -0.03000000</i>
  <i type="int" name="NSW">     0</i>
  <i type="int" name="ISIF">     0</i>
  <i type="int" name="ISYM">     0</i>
  <i name="SYMPREC">      0.00001000</i>
  <i name="ENCUT">    420.00000000</i>
  <i type="logical" name="LREAL"> F  </i>
  <i type="int" name="ISMEAR">     0</i>
  <i name="SIGMA">      0.05000000</i>
  <i type="logical" name="LWAVE"> F  </i>
  <i type="logical" name="LVTOT"> F  </i>
  <i type="int" name="LORBIT">    11</i>
  <i type="logical" name="LASPH"> F  </i>
  <i type="string" name="GGA">RP</i>
 </incar>
 <primitive_cell>
  <structure name="primitive_cell" >
   <crystal>
    <varray name="basis" >
     <v>       2.43486100       0.00000500       1.40578200 </v>
     <v>       0.81162600       2.29560600       1.40578200 </v>
     <v>       0.00000700       0.00000500       2.81154200 </v>
    </varray>
    <i name="volume">     15.71501664 </i>
    <varray name="rec_basis" >
     <v>       0.41070180      -0.14520575      -0.00000076 </v>
     <v>      -0.00000045       0.43561545      -0.00000077 </v>
     <v>      -0.20535228      -0.14520599       0.35567748 </v>
    </varray>
   </crystal>
   <varray name="positions" >
    <v>       0.00000000       0.00000000       0.00000000 </v>
   </varray>
  </structure>
  <varray name="primitive_index" >
   <v type="int" >        1 </v>
  </varray>
 </primitive_cell>
 <kpoints>
  <generation param="Gamma">
   <v type="int" name="divisions">       6        6        6 </v>
   <v name="usershift">      0.00000000       0.00000000       0.00000000 </v>
   <v name="genvec1">      0.16666667       0.00000000       0.00000000 </v>
   <v name="genvec2">      0.00000000       0.16666667      -0.00000000 </v>
   <v name="genvec3">      0.00000000       0.00000000       0.16666667 </v>
   <v name="shift">      0.00000000       0.00000000       0.00000000 </v>
  </generation>
  <varray name="kpointlist" >
   <v>       0.00000000       0.00000000       0.00000000 </v>
   <v>       0.16666667       0.00000000       0.00000000 </v>
   <v>       0.00000000       0.16666667       0.00000000 </v>
   <v>       0.00000000       0.00000000       0.16666667 </v>
   <v>       0.16666667       0.16666667       0.16666667 </v>
   <v>       0.33333333       0.00000000       0.00000000 </v>
   <v>       0.00000000       0.33333333       0.00000000 </v>
   <v>       0.00000000       0.00000000       0.33333333 </v>
   <v>       0.33333333       0.33333333       0.33333333 </v>
   <v>       0.50000000       0.00000000       0.00000000 </v>
   <v>       0.00000000       0.50000000       0.00000000 </v>
   <v>       0.00000000       0.00000000       0.50000000 </v>
   <v>       0.50000000       0.50000000       0.50000000 </v>
   <v>       0.16666667       0.16666667       0.00000000 </v>
   <v>       0.00000000       0.16666667       0.16666667 </v>
   <v>       0.16666667       0.00000000       0.16666667 </v>
   <v>       0.33333333       0.16666667       0.00000000 </v>
   <v>       0.00000000       0.33333333       0.16666667 </v>
   <v>       0.16666667       0.00000000       0.33333333 </v>
   <v>       0.16666667       0.16666667      -0.16666667 </v>
   <v>       0.33333333       0.16666667       0.33333333 </v>
   <v>       0.16666667       0.33333333       0.00000000 </v>
   <v>       0.16666667      -0.16666667      -0.16666667 </v>
   <v>       0.33333333       0.33333333       0.16666667 </v>
   <v>       0.00000000       0.16666667       0.33333333 </v>
   <v>      -0.16666667       0.16666667      -0.16666667 </v>
   <v>       0.16666667       0.33333333       0.33333333 </v>
   <v>       0.33333333       0.00000000       0.16666667 </v>
   <v>       0.50000000       0.16666667       0.00000000 </v>
   <v>       0.00000000       0.50000000       0.16666667 </v>
   <v>       0.16666667       0.00000000       0.50000000 </v>
   <v>       0.16666667       0.16666667      -0.33333333 </v>
   <v>       0.50000000       0.33333333       0.50000000 </v>
   <v>       0.16666667       0.50000000       0.00000000 </v>
   <v>       0.33333333      -0.16666667      -0.16666667 </v>
   <v>       0.50000000       0.50000000       0.33333333 </v>
   <v>       0.00000000       0.16666667       0.50000000 </v>
   <v>      -0.16666667       0.33333333      -0.16666667 </v>
   <v>       0.33333333       0.50000000       0.50000000 </v>
   <v>       0.50000000       0.00000000       0.16666667 </v>
   <v>      -0.33333333       0.16666667       0.00000000 </v>
   <v>       0.00000000      -0.33333333       0.16666667 </v>
   <v>       0.16666667       0.00000000      -0.33333333 </v>
   <v>       0.16666667       0.16666667       0.50000000 </v>
   <v>      -0.33333333       0.50000000      -0.33333333 </v>
   <v>       0.16666667      -0.33333333       0.00000000 </v>
   <v>       0.50000000      -0.16666667      -0.16666667 </v>
   <v>      -0.33333333      -0.33333333       0.50000000 </v>
   <v>       0.00000000       0.16666667      -0.33333333 </v>
   <v>      -0.16666667       0.50000000      -0.16666667 </v>
   <v>       0.50000000      -0.33333333      -0.33333333 </v>
   <v>      -0.33333333       0.00000000       0.16666667 </v>
   <v>      -0.16666667       0.16666667       0.00000000 </v>
   <v>       0.00000000      -0.16666667       0.16666667 </v>
   <v>       0.16666667       0.00000000      -0.16666667 </v>
   <v>       0.16666667       0.16666667       0.33333333 </v>
   <v>      -0.16666667      -0.33333333      -0.16666667 </v>
   <v>      -0.33333333      -0.16666667      -0.16666667 </v>
   <v>       0.33333333       0.33333333       0.00000000 </v>
   <v>       0.00000000       0.33333333       0.33333333 </v>
   <v>       0.33333333       0.00000000       0.33333333 </v>
   <v>       0.50000000       0.33333333       0.00000000 </v>
   <v>       0.00000000       0.50000000       0.33333333 </v>
   <v>       0.33333333       0.00000000       0.50000000 </v>
   <v>       0.33333333       0.33333333      -0.16666667 </v>
   <v>       0.50000000       0.16666667       0.50000000 </v>
   <v>       0.33333333       0.50000000       0.00000000 </v>
   <v>       0.16666667      -0.33333333      -0.33333333 </v>
   <v>       0.50000000       0.50000000       0.16666667 </v>
   <v>       0.00000000       0.33333333       0.50000000 </v>
   <v>      -0.33333333       0.16666667      -0.33333333 </v>
   <v>       0.16666667       0.50000000       0.50000000 </v>
   <v>       0.50000000       0.00000000       0.33333333 </v>
   <v>      -0.33333333       0.33333333       0.00000000 </v>
   <v>       0.00000000      -0.33333333       0.33333333 </v>
   <v>       0.33333333       0.00000000      -0.33333333 </v>
   <v>       0.33333333       0.33333333      -0.33333333 </v>
   <v>      -0.33333333       0.33333333      -0.33333333 </v>
   <v>       0.33333333      -0.33333333      -0.33333333 </v>
   <v>       0.50000000       0.50000000       0.00000000 </v>
   <v>       0.00000000       0.50000000       0.50000000 </v>
   <v>       0.50000000       0.00000000       0.50000000 </v>
   <v>       0.50000000       0.33333333       0.16666667 </v>
   <v>       0.16666667       0.50000000       0.33333333 </v>
   <v>       0.33333333       0.16666667       0.50000000 </v>
   <v>       0.33333333       0.16666667      -0.16666667 </v>
   <v>       0.50000000       0.16666667       0.33333333 </v>
   <v>       0.16666667      -0.33333333      -0.16666667 </v>
   <v>       0.16666667       0.33333333      -0.16666667 </v>
   <v>       0.16666667      -0.16666667      -0.33333333 </v>
   <v>       0.33333333       0.50000000       0.16666667 </v>
   <v>      -0.16666667       0.16666667      -0.33333333 </v>
   <v>      -0.33333333       0.16666667      -0.16666667 </v>
   <v>       0.16666667       0.33333333       0.50000000 </v>
   <v>      -0.33333333       0.33333333       0.16666667 </v>
   <v>       0.16666667      -0.33333333       0.33333333 </v>
   <v>       0.33333333       0.16666667      -0.33333333 </v>
   <v>      -0.33333333       0.33333333       0.50000000 </v>
   <v>       0.16666667       0.50000000      -0.16666667 </v>
   <v>       0.33333333      -0.16666667      -0.33333333 </v>
   <v>       0.50000000      -0.33333333       0.33333333 </v>
   <v>      -0.16666667       0.16666667       0.50000000 </v>
   <v>      -0.33333333       0.33333333      -0.16666667 </v>
   <v>       0.33333333       0.50000000      -0.33333333 </v>
   <v>       0.50000000      -0.16666667       0.16666667 </v>
   <v>      -0.16666667      -0.33333333       0.33333333 </v>
   <v>      -0.33333333       0.50000000       0.16666667 </v>
   <v>       0.16666667      -0.33333333       0.50000000 </v>
   <v>       0.50000000       0.16666667      -0.33333333 </v>
   <v>       0.50000000       0.33333333      -0.16666667 </v>
   <v>      -0.33333333       0.16666667       0.50000000 </v>
   <v>       0.16666667       0.50000000      -0.33333333 </v>
  </varray>
  <varray name="weights" >
   <v>       0.00462963 </v>
   <v>       0.00925926 </v>
   <v>       0.00925926 </v>
   <v>       0.00925926 </v>
   <v>       0.00925926 </v>
   <v>       0.00925926 </v>
   <v>       0.00925926 </v>
   <v>       0.00925926 </v>
   <v>       0.00925926 </v>
   <v>       0.00462963 </v>
   <v>       0.00462963 </v>
   <v>       0.00462963 </v>
   <v>       0.00462963 </v>
   <v>       0.00925926 </v>
   <v>       0.00925926 </v>
   <v>       0.00925926 </v>
   <v>       0.00925926 </v>
   <v>       0.00925926 </v>
   <v>       0.00925926 </v>
   <v>       0.00925926 </v>
   <v>       0.00925926 </v>
   <v>       0.00925926 </v>
   <v>       0.00925926 </v>
   <v>       0.00925926 </v>
   <v>       0.00925926 </v>
   <v>       0.00925926 </v>
   <v>       0.00925926 </v>
   <v>       0.00925926 </v>
   <v>       0.00925926 </v>
   <v>       0.00925926 </v>
   <v>       0.00925926 </v>
   <v>       0.00925926 </v>
   <v>       0.00925926 </v>
   <v>       0.00925926 </v>
   <v>       0.00925926 </v>
   <v>       0.00925926 </v>
   <v>       0.00925926 </v>
   <v>       0.00925926 </v>
   <v>       0.00925926 </v>
   <v>       0.00925926 </v>
   <v>       0.00925926 </v>
   <v>       0.00925926 </v>
   <v>       0.00925926 </v>
   <v>       0.00925926 </v>
   <v>       0.00925926 </v>
   <v>       0.00925926 </v>
   <v>       0.00925926 </v>
   <v>       0.00925926 </v>
   <v>       0.00925926 </v>
   <v>       0.00925926 </v>
   <v>       0.00925926 </v>
   <v>       0.00925926 </v>
   <v>       0.00925926 </v>
   <v>       0.00925926 </v>
   <v>       0.00925926 </v>
   <v>       0.00925926 </v>
   <v>       0.00925926 </v>
   <v>       0.00925926 </v>
   <v>       0.00925926 </v>
   <v>       0.00925926 </v>
   <v>       0.00925926 </v>
   <v>       0.00925926 </v>
   <v>       0.00925926 </v>
   <v>       0.00925926 </v>
   <v>       0.00925926 </v>
   <v>       0.00925926 </v>
   <v>       0.00925926 </v>
   <v>       0.00925926 </v>
   <v>       0.00925926 </v>
   <v>       0.00925926 </v>
   <v>       0.00925926 </v>
   <v>       0.00925926 </v>
   <v>       0.00925926 </v>
   <v>       0.00925926 </v>
   <v>       0.00925926 </v>
   <v>       0.00925926 </v>
   <v>       0.00925926 </v>
   <v>       0.00925926 </v>
   <v>       0.00925926 </v>
   <v>       0.00462963 </v>
   <v>       0.00462963 </v>
   <v>       0.00462963 </v>
   <v>       0.00925926 </v>
   <v>       0.00925926 </v>
   <v>       0.00925926 </v>
   <v>       0.00925926 </v>
   <v>       0.00925926 </v>
   <v>       0.00925926 </v>
   <v>       0.00925926 </v>
   <v>       0.00925926 </v>
   <v>       0.00925926 </v>
   <v>       0.00925926 </v>
   <v>       0.00925926 </v>
   <v>       0.00925926 </v>
   <v>       0.00925926 </v>
   <v>       0.00925926 </v>
   <v>       0.00925926 </v>
   <v>       0.00925926 </v>
   <v>       0.00925926 </v>
   <v>       0.00925926 </v>
   <v>       0.00925926 </v>
   <v>       0.00925926 </v>
   <v>       0.00925926 </v>
   <v>       0.00925926 </v>
   <v>       0.00925926 </v>
   <v>       0.00925926 </v>
   <v>       0.00925926 </v>
   <v>       0.00925926 </v>
   <v>       0.00925926 </v>
   <v>       0.00925926 </v>
   <v>       0.00925926 </v>
   <v>       0.00925926 </v>
  </varray>
 </kpoints>
 <parameters>
  <separator name="general" >
   <i type="string" name="SYSTEM">unknown system</i>
   <i type="logical" name="LCOMPAT"> F  </i>
  </separator>
  <separator name="electronic" >
   <i type="string" name="PREC">normal</i>
   <i name="ENMAX">    420.00000000</i>
   <i name="ENAUG">    358.96600000</i>
   <i name="EDIFF">      0.00010000</i>
   <i type="int" name="IALGO">    38</i>
   <i type="int" name="IWAVPR">    10</i>
   <i type="int" name="NBANDS">    12</i>
   <i type="int" name="NBANDSLOW">    -1</i>
   <i type="int" name="NBANDSHIGH">    -1</i>
   <i name="NELECT">     10.00000000</i>
   <i type="int" name="TURBO">     0</i>
   <i type="int" name="IRESTART">     0</i>
   <i type="int" name="NREBOOT">     0</i>
   <i type="int" name="NMIN">     0</i>
   <i name="EREF">      0.00000000</i>
   <separator name="electronic smearing" >
    <i type="int" name="ISMEAR">     0</i>
    <i name="SIGMA">      0.05000000</i>
    <i name="KSPACING">      0.50000000</i>
    <i type="logical" name="KGAMMA"> T  </i>
    <i type="logical" name="KBLOWUP"> T  </i>
   </separator>
   <separator name="electronic projectors" >
    <i type="logical" name="LREAL"> F  </i>
    <v name="ROPT">      0.00000000</v>
    <i type="int" name="LMAXPAW">  -100</i>
    <i type="int" name="LMAXMIX">     2</i>
    <i type="logical" name="NLSPLINE"> F  </i>
   </separator>
   <separator name="electronic startup" >
    <i type="int" name="ISTART">     0</i>
    <i type="int" name="ICHARG">     2</i>
    <i type="int" name="INIWAV">     1</i>
   </separator>
   <separator name="electronic spin" >
    <i type="int" name="ISPIN">     1</i>
    <i type="logical" name="LNONCOLLINEAR"> F  </i>
    <v name="MAGMOM">      1.00000000</v>
    <i name="NUPDOWN">     -1.00000000</i>
    <i type="logical" name="LSORBIT"> F  </i>
    <v name="SAXIS">      0.00000000      0.00000000      1.00000000</v>
    <i type="logical" name="LSPIRAL"> F  </i>
    <v name="QSPIRAL">      0.00000000      0.00000000      0.00000000</v>
    <i type="logical" name="LZEROZ"> F  </i>
   </separator>
   <separator name="electronic exchange-correlation" >
    <i type="logical" name="LASPH"> F  </i>
    <i type="logical" name="LMETAGGA"> F  </i>
   </separator>
   <separator name="electronic convergence" >
    <i type="int" name="NELM">    60</i>
    <i type="int" name="NELMDL">    -5</i>
    <i type="int" name="NELMIN">     4</i>
    <i name="ENINI">    420.00000000</i>
    <separator name="electronic convergence detail" >
     <i type="logical" name="LDIAG"> T  </i>
     <i type="logical" name="LSUBROT"> F  </i>
     <i name="WEIMIN">      0.00000000</i>
     <i name="EBREAK">      0.00000208</i>
     <i name="DEPER">      0.30000000</i>
     <i type="int" name="NRMM">     4</i>
     <i name="TIME">      0.40000000</i>
    </separator>
   </separator>
   <separator name="electronic mixer" >
    <i name="AMIX">      0.40000000</i>
    <i name="BMIX">      1.00000000</i>
    <i name="AMIN">      0.10000000</i>
    <i name="AMIX_MAG">      1.60000000</i>
    <i name="BMIX_MAG">      1.00000000</i>
    <separator name="electronic mixer details" >
     <i type="int" name="IMIX">     4</i>
     <i type="logical" name="MIXFIRST"> F  </i>
     <i type="int" name="MAXMIX">   -45</i>
     <i name="WC">    100.00000000</i>
     <i type="int" name="INIMIX">     1</i>
     <i type="int" name="MIXPRE">     1</i>
     <i type="int" name="MREMOVE">     5</i>
    </separator>
   </separator>
   <separator name="electronic dipolcorrection" >
    <i type="logical" name="LDIPOL"> F  </i>
    <i type="logical" name="LMONO"> F  </i>
    <i type="int" name="IDIPOL">     0</i>
    <i name="EPSILON">      1.00000000</i>
    <v name="DIPOL">   -100.00000000   -100.00000000   -100.00000000</v>
    <i name="EFIELD">      0.00000000</i>
   </separator>
  </separator>
  <separator name="grids" >
   <i type="int" name="NGX">    14</i>
   <i type="int" name="NGY">    14</i>
   <i type="int" name="NGZ">    14</i>
   <i type="int" name="NGXF">    28</i>
   <i type="int" name="NGYF">    28</i>
   <i type="int" name="NGZF">    28</i>
   <i type="logical" name="ADDGRID"> F  </i>
  </separator>
  <separator name="ionic" >
   <i type="int" name="NSW">     0</i>
   <i type="int" name="IBRION">    -1</i>
   <i type="int" name="MDALGO">     0</i>
   <i type="int" name="ISIF">     0</i>
   <i name="PSTRESS">      0.00000000</i>
   <i name="EDIFFG">     -0.03000000</i>
   <i type="int" name="NFREE">     1</i>
   <i name="POTIM">      0.50000000</i>
   <i name="SMASS">     -3.00000000</i>
   <i name="SCALEE">      1.00000000</i>
  </separator>
  <separator name="ionic md" >
   <i name="TEBEG">      0.00010000</i>
   <i name="TEEND">      0.00010000</i>
   <i type="int" name="NBLOCK">     1</i>
   <i type="int" name="KBLOCK">     1</i>
   <i type="int" name="NPACO">   256</i>
   <i name="APACO">     16.00000000</i>
  </separator>
  <separator name="symmetry" >
   <i type="int" name="ISYM">     0</i>
   <i name="SYMPREC">      0.00001000</i>
  </separator>
  <separator name="dos" >
   <i type="int" name="LORBIT">    11</i>
   <v name="RWIGS">     -1.00000000</v>
   <i type="int" name="NEDOS">   301</i>
   <i name="EMIN">     10.00000000</i>
   <i name="EMAX">    -10.00000000</i>
   <i name="EFERMI">      0.00000000</i>
  </separator>
  <separator name="writing" >
   <i type="int" name="NWRITE">     2</i>
   <i type="logical" name="LWAVE"> F  </i>
   <i type="logical" name="LDOWNSAMPLE"> F  </i>
   <i type="logical" name="LCHARG"> T  </i>
   <i type="logical" name="LPARD"> F  </i>
   <i type="logical" name="LVTOT"> F  </i>
   <i type="logical" name="LVHAR"> F  </i>
   <i type="logical" name="LELF"> F  </i>
   <i type="logical" name="LOPTICS"> F  </i>
   <v name="STM">      0.00000000      0.00000000      0.00000000      0.00000000      0.00000000      0.00000000      0.00000000</v>
  </separator>
  <separator name="performance" >
   <i type="int" name="NPAR">     4</i>
   <i type="int" name="NSIM">     4</i>
   <i type="int" name="NBLK">    -1</i>
   <i type="logical" name="LPLANE"> T  </i>
   <i type="logical" name="LSCALAPACK"> T  </i>
   <i type="logical" name="LSCAAWARE"> F  </i>
   <i type="logical" name="LSCALU"> F  </i>
   <i type="logical" name="LASYNC"> F  </i>
   <i type="logical" name="LORBITALREAL"> F  </i>
  </separator>
  <separator name="miscellaneous" >
   <i type="int" name="IDIOT">     3</i>
   <i type="int" name="PHON_NSTRUCT">    -1</i>
   <i type="logical" name="LMUSIC"> F  </i>
   <v name="POMASS">    195.08000000</v>
   <v name="DARWINR">      0.00000000</v>
   <v name="DARWINV">      1.00000000</v>
   <i type="logical" name="LCORR"> T  </i>
  </separator>
  <i type="logical" name="GGA_COMPAT"> T  </i>
  <i type="logical" name="LBERRY"> F  </i>
  <i type="int" name="ICORELEVEL">     0</i>
  <i type="logical" name="LDAU"> F  </i>
  <i type="int" name="I_CONSTRAINED_M">     0</i>
  <separator name="electronic exchange-correlation" >
   <i type="string" name="GGA">RP</i>
   <i type="int" name="VOSKOWN">     0</i>
   <i type="logical" name="LHFCALC"> F  </i>
   <i type="string" name="PRECFOCK"></i>
   <i type="logical" name="LSYMGRAD"> F  </i>
   <i type="logical" name="LHFONE"> F  </i>
   <i type="logical" name="LRHFCALC"> F  </i>
   <i type="logical" name="LTHOMAS"> F  </i>
   <i type="logical" name="LMODELHF"> F  </i>
   <i type="logical" name="LFOCKACE"> F  </i>
   <i name="ENCUT4O">     -1.00000000</i>
   <i type="int" name="EXXOEP">     0</i>
   <i type="int" name="FOURORBIT">     0</i>
   <i name="AEXX">      0.00000000</i>
   <i name="HFALPHA">      0.00000000</i>
   <i name="MCALPHA">      0.00000000</i>
   <i name="ALDAX">      1.00000000</i>
   <i name="AGGAX">      1.00000000</i>
   <i name="ALDAC">      1.00000000</i>
   <i name="AGGAC">      1.00000000</i>
   <i type="int" name="NKREDX">     1</i>
   <i type="int" name="NKREDY">     1</i>
   <i type="int" name="NKREDZ">     1</i>
   <i type="logical" name="SHIFTRED"> F  </i>
   <i type="logical" name="ODDONLY"> F  </i>
   <i type="logical" name="EVENONLY"> F  </i>
   <i type="int" name="LMAXFOCK">     0</i>
   <i type="int" name="NMAXFOCKAE">     0</i>
   <i type="logical" name="LFOCKAEDFT"> F  </i>
   <i name="HFSCREEN">      0.00000000</i>
   <i name="HFSCREENC">      0.00000000</i>
   <i type="int" name="NBANDSGWLOW">     0</i>
  </separator>
  <separator name="vdW DFT" >
   <i type="logical" name="LUSE_VDW"> F  </i>
   <i name="Zab_VDW">     -0.84910000</i>
   <i name="PARAM1">      0.12340000</i>
   <i name="PARAM2">      1.00000000</i>
   <i name="PARAM3">      0.00000000</i>
  </separator>
  <separator name="model GW" >
   <i type="int" name="MODEL_GW">     0</i>
   <i name="MODEL_EPS0">      9.42900999</i>
   <i name="MODEL_ALPHA">      1.00000000</i>
  </separator>
  <separator name="linear response parameters" >
   <i type="logical" name="LEPSILON"> F  </i>
   <i type="logical" name="LRPA"> F  </i>
   <i type="logical" name="LNABLA"> F  </i>
   <i type="logical" name="LVEL"> F  </i>
   <i type="int" name="KINTER">     0</i>
   <i name="CSHIFT">      0.10000000</i>
   <i name="OMEGAMAX">     -1.00000000</i>
   <i name="DEG_THRESHOLD">      0.00200000</i>
   <i name="RTIME">     -0.10000000</i>
   <i name="WPLASMAI">      0.00000000</i>
   <v name="DFIELD">      0.00000000      0.00000000      0.00000000</v>
   <v name="WPLASMA">      0.00000000      0.00000000      0.00000000      0.00000000      0.00000000      0.00000000      0.00000000      0.00000000      0.00000000</v>
  </separator>
  <separator name="orbital magnetization" >
   <i type="logical" name="NUCIND"> F  </i>
   <v name="MAGPOS">      0.00000000      0.00000000      0.00000000</v>
   <i type="logical" name="LNICSALL"> T  </i>
   <i type="logical" name="ORBITALMAG"> F  </i>
   <i type="logical" name="LMAGBLOCH"> F  </i>
   <i type="logical" name="LCHIMAG"> F  </i>
   <i type="logical" name="LGAUGE"> T  </i>
   <i type="int" name="MAGATOM">     0</i>
   <v name="MAGDIPOL">      0.00000000      0.00000000      0.00000000</v>
   <v name="AVECCONST">      0.00000000      0.00000000      0.00000000</v>
  </separator>
  <separator name="response functions" >
   <i type="logical" name="LFINITE_TEMPERATURE"> F  </i>
   <i type="logical" name="LADDER"> F  </i>
   <i type="logical" name="LRPAFORCE"> F  </i>
   <i type="logical" name="LFXC"> F  </i>
   <i type="logical" name="LHARTREE"> T  </i>
   <i type="int" name="IBSE">     0</i>
   <v type="int" name="KPOINT">    -1     0     0     0</v>
   <i type="logical" name="LTCTC"> F  </i>
   <i type="logical" name="LTCTE"> F  </i>
   <i type="logical" name="LTETE"> F  </i>
   <i type="logical" name="LTRIPLET"> F  </i>
   <i type="logical" name="LFXCEPS"> F  </i>
   <i type="logical" name="LFXHEG"> F  </i>
   <i type="int" name="NATURALO">     2</i>
   <i type="logical" name="LHOLEGF"> F  </i>
   <i type="logical" name="L2ORDER"> F  </i>
   <i type="logical" name="LDMP1"> F  </i>
   <i type="logical" name="LMP2LT"> F  </i>
   <i type="logical" name="LSMP2LT"> F  </i>
   <i type="logical" name="LGWLF"> F  </i>
   <i name="ENCUTGW">     -2.00000000</i>
   <i name="ENCUTGWSOFT">     -2.00000000</i>
   <i name="ENCUTLF">     -1.00000000</i>
   <i type="logical" name="LESF_SPLINES"> F  </i>
   <i type="int" name="LMAXMP2">    -1</i>
   <i name="SCISSOR">      0.00000000</i>
   <i type="int" name="NOMEGA">     0</i>
   <i type="int" name="NOMEGAR">     0</i>
   <i type="int" name="NBANDSGW">    -1</i>
   <i type="int" name="NBANDSO">    -1</i>
   <i type="int" name="NBANDSV">    -1</i>
   <i type="int" name="NELM">    60</i>
   <i type="int" name="NELMHF">     1</i>
   <i type="int" name="DIM">     3</i>
   <i type="int" name="IESPILON">     4</i>
   <i type="int" name="ANTIRES">     0</i>
   <i name="OMEGAMAX">    -30.00000000</i>
   <i name="OMEGAMIN">    -30.00000000</i>
   <i name="OMEGATL">   -200.00000000</i>
   <i type="int" name="OMEGAGRID">     0</i>
   <i name="CSHIFT">     -0.10000000</i>
   <i type="logical" name="LSELFENERGY"> F  </i>
   <i type="logical" name="LSPECTRAL"> F  </i>
   <i type="logical" name="LSPECTRALGW"> F  </i>
   <i type="logical" name="LSINGLES"> F  </i>
   <i type="logical" name="LFERMIGW"> F  </i>
   <i type="logical" name="ODDONLYGW"> F  </i>
   <i type="logical" name="EVENONLYGW"> F  </i>
   <i type="int" name="NKREDLFX">     1</i>
   <i type="int" name="NKREDLFY">     1</i>
   <i type="int" name="NKREDLFZ">     1</i>
   <i type="int" name="MAXMEM">  2800</i>
   <i type="int" name="TELESCOPE">     0</i>
   <i type="int" name="NTAUPAR">    -1</i>
   <i type="int" name="NOMEGAPAR">    -1</i>
   <i name="DAMP_NEWTON">      0.80000001</i>
   <i name="LAMBDA">      1.00000000</i>
  </separator>
  <separator name="External order field" >
   <i name="OFIELD_KAPPA">      0.00000000</i>
   <v name="OFIELD_K">      0.00000000      0.00000000      0.00000000</v>
   <i name="OFIELD_Q6_NEAR">      0.00000000</i>
   <i name="OFIELD_Q6_FAR">      0.00000000</i>
   <i name="OFIELD_A">      0.00000000</i>
  </separator>
 </parameters>
 <atominfo>
  <atoms>       1 </atoms>
  <types>       1 </types>
  <array name="atoms" >
   <dimension dim="1">ion</dimension>
   <field type="string">element</field>
   <field type="int">atomtype</field>
   <set>
    <rc><c>Pt</c><c>   1</c></rc>
   </set>
  </array>
  <array name="atomtypes" >
   <dimension dim="1">type</dimension>
   <field type="int">atomspertype</field>
   <field type="string">element</field>
   <field>mass</field>
   <field>valence</field>
   <field type="string">pseudopotential</field>
   <set>
    <rc><c>   1</c><c>Pt</c><c>    195.08000000</c><c>     10.00000000</c><c>  PAW_PBE Pt 04Feb2005                  </c></rc>
   </set>
  </array>
 </atominfo>
 <structure name="initialpos" >
  <crystal>
   <varray name="basis" >
    <v>       2.43486100       0.00000500       1.40578200 </v>
    <v>       0.81162600       2.29560600       1.40578200 </v>
    <v>       0.00000700       0.00000500       2.81154200 </v>
   </varray>
   <i name="volume">     15.71501664 </i>
   <varray name="rec_basis" >
    <v>       0.41070180      -0.14520575      -0.00000076 </v>
    <v>      -0.00000045       0.43561545      -0.00000077 </v>
    <v>      -0.20535228      -0.14520599       0.35567748 </v>
   </varray>
  </crystal>
  <varray name="positions" >
   <v>       0.00000000       0.00000000       0.00000000 </v>
  </varray>
 </structure>
 <calculation>
  <scstep>
   <time name="dav">    0.45    0.45</time>
   <time name="total">    0.46    0.46</time>
   <energy>
    <i name="alphaZ">     60.48881089 </i>
    <i name="ewald">   -830.22168716 </i>
    <i name="hartreedc">    -75.19307098 </i>
    <i name="XCdc">      3.36136989 </i>
    <i name="pawpsdc">    696.70595042 </i>
    <i name="pawaedc">   -667.45827301 </i>
    <i name="eentropy">     -0.00088302 </i>
    <i name="bandstr">    117.84351888 </i>
    <i name="atom">    728.31920932 </i>
    <i name="e_fr_energy">     33.84494524 </i>
    <i name="e_wo_entrp">     33.84582826 </i>
    <i name="e_0_energy">     33.84538675 </i>
   </energy>
  </scstep>
  <scstep>
   <time name="dav">    0.47    0.47</time>
   <time name="total">    0.47    0.47</time>
   <energy>
    <i name="e_fr_energy">     -5.38645128 </i>
    <i name="e_wo_entrp">     -5.38487333 </i>
    <i name="e_0_energy">     -5.38566230 </i>
   </energy>
  </scstep>
  <scstep>
   <time name="dav">    0.49    0.49</time>
   <time name="total">    0.49    0.49</time>
   <energy>
    <i name="e_fr_energy">     -5.90554426 </i>
    <i name="e_wo_entrp">     -5.90367271 </i>
    <i name="e_0_energy">     -5.90460849 </i>
   </energy>
  </scstep>
  <scstep>
   <time name="dav">    0.48    0.48</time>
   <time name="total">    0.48    0.48</time>
   <energy>
    <i name="e_fr_energy">     -5.90766463 </i>
    <i name="e_wo_entrp">     -5.90578958 </i>
    <i name="e_0_energy">     -5.90672711 </i>
   </energy>
  </scstep>
  <scstep>
   <time name="dav">    0.49    0.50</time>
   <time name="total">    0.50    0.51</time>
   <energy>
    <i name="e_fr_energy">     -5.90768229 </i>
    <i name="e_wo_entrp">     -5.90580720 </i>
    <i name="e_0_energy">     -5.90674475 </i>
   </energy>
  </scstep>
  <scstep>
   <time name="dav">    0.45    0.46</time>
   <time name="total">    0.47    0.47</time>
   <energy>
    <i name="e_fr_energy">     -5.59306674 </i>
    <i name="e_wo_entrp">     -5.59083239 </i>
    <i name="e_0_energy">     -5.59194956 </i>
   </energy>
  </scstep>
  <scstep>
   <time name="dav">    0.46    0.47</time>
   <time name="total">    0.48    0.48</time>
   <energy>
    <i name="e_fr_energy">     -5.55686644 </i>
    <i name="e_wo_entrp">     -5.55463838 </i>
    <i name="e_0_energy">     -5.55575241 </i>
   </energy>
  </scstep>
  <scstep>
   <time name="dav">    0.44    0.44</time>
   <time name="total">    0.45    0.46</time>
   <energy>
    <i name="e_fr_energy">     -5.55435363 </i>
    <i name="e_wo_entrp">     -5.55215682 </i>
    <i name="e_0_energy">     -5.55325523 </i>
   </energy>
  </scstep>
  <scstep>
   <time name="dav">    0.46    0.47</time>
   <time name="total">    0.48    0.48</time>
   <energy>
    <i name="e_fr_energy">     -5.55411432 </i>
    <i name="e_wo_entrp">     -5.55191075 </i>
    <i name="e_0_energy">     -5.55301253 </i>
   </energy>
  </scstep>
  <scstep>
   <time name="dav">    0.31    0.31</time>
   <time name="total">    0.32    0.32</time>
   <energy>
    <i name="alphaZ">     60.48881089 </i>
    <i name="ewald">   -830.22168716 </i>
    <i name="hartreedc">    -64.82991922 </i>
    <i name="XCdc">      3.02942307 </i>
    <i name="pawpsdc">    902.67226527 </i>
    <i name="pawaedc">   -876.39056707 </i>
    <i name="eentropy">     -0.00220160 </i>
    <i name="bandstr">     71.38055216 </i>
    <i name="atom">    728.31920932 </i>
    <i name="e_fr_energy">     -5.55411433 </i>
    <i name="e_wo_entrp">     -5.55191274 </i>
    <i name="e_0_energy">     -5.55301353 </i>
   </energy>
  </scstep>
  <structure>
   <crystal>
    <varray name="basis" >
     <v>       2.43486100       0.00000500       1.40578200 </v>
     <v>       0.81162600       2.29560600       1.40578200 </v>
     <v>       0.00000700       0.00000500       2.81154200 </v>
    </varray>
    <i name="volume">     15.71501664 </i>
    <varray name="rec_basis" >
     <v>       0.41070180      -0.14520575      -0.00000076 </v>
     <v>      -0.00000045       0.43561545      -0.00000077 </v>
     <v>      -0.20535228      -0.14520599       0.35567748 </v>
    </varray>
   </crystal>
   <varray name="positions" >
    <v>       0.00000000       0.00000000       0.00000000 </v>
   </varray>
  </structure>
  <varray name="forces" >
   <v>      -0.00000313       0.00000188      -0.00000441 </v>
  </varray>
  <energy>
   <i name="e_fr_energy">     -5.55411433 </i>
   <i name="e_wo_entrp">     -5.55191274 </i>
   <i name="e_0_energy">     -5.55301353 </i>
  </energy>
  <time name="totalsc">    4.67    4.71</time>
  <eigenvalues>
   <array>
    <dimension dim="1">band</dimension>
    <dimension dim="2">kpoint</dimension>
    <dimension dim="3">spin</dimension>
    <field>eigene</field>
    <field>occ</field>
    <set>
     <set comment="spin 1">
      <set comment="kpoint 1">
       <r>    0.8446    1.0000 </r>
       <r>    7.0001    1.0000 </r>
       <r>    7.0002    1.0000 </r>
       <r>    7.0002    1.0000 </r>
       <r>    9.0047    1.0000 </r>
       <r>    9.0047    1.0000 </r>
       <r>   25.3051    0.0000 </r>
       <r>   30.0558    0.0000 </r>
       <r>   30.0561    0.0000 </r>
       <r>   30.0561    0.0000 </r>
       <r>   35.2472    0.0000 </r>
       <r>   41.8013    0.0000 </r>
      </set>
      <set comment="kpoint 2">
       <r>    1.8527    1.0000 </r>
       <r>    6.6696    1.0000 </r>
       <r>    7.3071    1.0000 </r>
       <r>    7.3073    1.0000 </r>
       <r>    8.9122    1.0000 </r>
       <r>    8.9122    1.0000 </r>
       <r>   26.2891    0.0000 </r>
       <r>   26.6599    0.0000 </r>
       <r>   31.5466    0.0000 </r>
       <r>   31.5468    0.0000 </r>
       <r>   34.9866    0.0000 </r>
       <r>   37.5662    0.0000 </r>
      </set>
      <set comment="kpoint 3">
       <r>    1.8527    1.0000 </r>
       <r>    6.6696    1.0000 </r>
       <r>    7.3071    1.0000 </r>
       <r>    7.3073    1.0000 </r>
       <r>    8.9122    1.0000 </r>
       <r>    8.9122    1.0000 </r>
       <r>   26.2891    0.0000 </r>
       <r>   26.6599    0.0000 </r>
       <r>   31.5466    0.0000 </r>
       <r>   31.5468    0.0000 </r>
       <r>   34.9866    0.0000 </r>
       <r>   37.5662    0.0000 </r>
      </set>
      <set comment="kpoint 4">
       <r>    1.8527    1.0000 </r>
       <r>    6.6696    1.0000 </r>
       <r>    7.3071    1.0000 </r>
       <r>    7.3073    1.0000 </r>
       <r>    8.9122    1.0000 </r>
       <r>    8.9122    1.0000 </r>
       <r>   26.2891    0.0000 </r>
       <r>   26.6599    0.0000 </r>
       <r>   31.5466    0.0000 </r>
       <r>   31.5468    0.0000 </r>
       <r>   34.9866    0.0000 </r>
       <r>   37.5661    0.0000 </r>
      </set>
      <set comment="kpoint 5">
       <r>    1.8527    1.0000 </r>
       <r>    6.6696    1.0000 </r>
       <r>    7.3072    1.0000 </r>
       <r>    7.3072    1.0000 </r>
       <r>    8.9123    1.0000 </r>
       <r>    8.9123    1.0000 </r>
       <r>   26.2889    0.0000 </r>
       <r>   26.6599    0.0000 </r>
       <r>   31.5468    0.0000 </r>
       <r>   31.5469    0.0000 </r>
       <r>   34.9865    0.0000 </r>
       <r>   37.5661    0.0000 </r>
      </set>
      <set comment="kpoint 6">
       <r>    3.4878    1.0000 </r>
       <r>    7.1882    1.0000 </r>
       <r>    7.1883    1.0000 </r>
       <r>    7.5160    1.0000 </r>
       <r>    9.7570    1.0000 </r>
       <r>    9.7571    1.0000 </r>
       <r>   20.5998    0.0000 </r>
       <r>   25.9756    0.0000 </r>
       <r>   31.5162    0.0000 </r>
       <r>   31.5164    0.0000 </r>
       <r>   35.2710    0.0000 </r>
       <r>   35.8339    0.0000 </r>
      </set>
      <set comment="kpoint 7">
       <r>    3.4878    1.0000 </r>
       <r>    7.1882    1.0000 </r>
       <r>    7.1883    1.0000 </r>
       <r>    7.5160    1.0000 </r>
       <r>    9.7570    1.0000 </r>
       <r>    9.7571    1.0000 </r>
       <r>   20.5998    0.0000 </r>
       <r>   25.9756    0.0000 </r>
       <r>   31.5162    0.0000 </r>
       <r>   31.5164    0.0000 </r>
       <r>   35.2710    0.0000 </r>
       <r>   35.8339    0.0000 </r>
      </set>
      <set comment="kpoint 8">
       <r>    3.4878    1.0000 </r>
       <r>    7.1882    1.0000 </r>
       <r>    7.1883    1.0000 </r>
       <r>    7.5160    1.0000 </r>
       <r>    9.7570    1.0000 </r>
       <r>    9.7571    1.0000 </r>
       <r>   20.5998    0.0000 </r>
       <r>   25.9756    0.0000 </r>
       <r>   31.5162    0.0000 </r>
       <r>   31.5164    0.0000 </r>
       <r>   35.2710    0.0000 </r>
       <r>   35.8340    0.0000 </r>
      </set>
      <set comment="kpoint 9">
       <r>    3.4878    1.0000 </r>
       <r>    7.1883    1.0000 </r>
       <r>    7.1883    1.0000 </r>
       <r>    7.5160    1.0000 </r>
       <r>    9.7571    1.0000 </r>
       <r>    9.7571    1.0000 </r>
       <r>   20.5996    0.0000 </r>
       <r>   25.9756    0.0000 </r>
       <r>   31.5164    0.0000 </r>
       <r>   31.5164    0.0000 </r>
       <r>   35.2709    0.0000 </r>
       <r>   35.8340    0.0000 </r>
      </set>
      <set comment="kpoint 10">
       <r>    3.6688    1.0000 </r>
       <r>    6.9458    1.0000 </r>
       <r>    6.9459    1.0000 </r>
       <r>   10.2903    1.0000 </r>
       <r>   10.5552    0.5127 </r>
       <r>   10.5552    0.5121 </r>
       <r>   16.1014    0.0000 </r>
       <r>   24.8654    0.0000 </r>
       <r>   29.2811    0.0000 </r>
       <r>   29.2813    0.0000 </r>
       <r>   38.2529    0.0000 </r>
       <r>   38.2529    0.0000 </r>
      </set>
      <set comment="kpoint 11">
       <r>    3.6688    1.0000 </r>
       <r>    6.9458    1.0000 </r>
       <r>    6.9459    1.0000 </r>
       <r>   10.2903    1.0000 </r>
       <r>   10.5552    0.5127 </r>
       <r>   10.5552    0.5121 </r>
       <r>   16.1014    0.0000 </r>
       <r>   24.8654    0.0000 </r>
       <r>   29.2811    0.0000 </r>
       <r>   29.2813    0.0000 </r>
       <r>   38.2529    0.0000 </r>
       <r>   38.2529    0.0000 </r>
      </set>
      <set comment="kpoint 12">
       <r>    3.6688    1.0000 </r>
       <r>    6.9458    1.0000 </r>
       <r>    6.9459    1.0000 </r>
       <r>   10.2903    1.0000 </r>
       <r>   10.5552    0.5127 </r>
       <r>   10.5552    0.5121 </r>
       <r>   16.1014    0.0000 </r>
       <r>   24.8654    0.0000 </r>
       <r>   29.2811    0.0000 </r>
       <r>   29.2813    0.0000 </r>
       <r>   38.2529    0.0000 </r>
       <r>   38.2529    0.0000 </r>
      </set>
      <set comment="kpoint 13">
       <r>    3.6688    1.0000 </r>
       <r>    6.9459    1.0000 </r>
       <r>    6.9459    1.0000 </r>
       <r>   10.2902    1.0000 </r>
       <r>   10.5552    0.5126 </r>
       <r>   10.5552    0.5126 </r>
       <r>   16.1013    0.0000 </r>
       <r>   24.8655    0.0000 </r>
       <r>   29.2813    0.0000 </r>
       <r>   29.2813    0.0000 </r>
       <r>   38.2531    0.0000 </r>
       <r>   38.2531    0.0000 </r>
      </set>
      <set comment="kpoint 14">
       <r>    2.2015    1.0000 </r>
       <r>    6.2114    1.0000 </r>
       <r>    7.7104    1.0000 </r>
       <r>    7.7105    1.0000 </r>
       <r>    8.1669    1.0000 </r>
       <r>    9.3520    1.0000 </r>
       <r>   27.3036    0.0000 </r>
       <r>   28.2105    0.0000 </r>
       <r>   29.4619    0.0000 </r>
       <r>   29.4620    0.0000 </r>
       <r>   35.8243    0.0000 </r>
       <r>   36.9564    0.0000 </r>
      </set>
      <set comment="kpoint 15">
       <r>    2.2015    1.0000 </r>
       <r>    6.2113    1.0000 </r>
       <r>    7.7104    1.0000 </r>
       <r>    7.7105    1.0000 </r>
       <r>    8.1669    1.0000 </r>
       <r>    9.3520    1.0000 </r>
       <r>   27.3036    0.0000 </r>
       <r>   28.2105    0.0000 </r>
       <r>   29.4618    0.0000 </r>
       <r>   29.4621    0.0000 </r>
       <r>   35.8243    0.0000 </r>
       <r>   36.9564    0.0000 </r>
      </set>
      <set comment="kpoint 16">
       <r>    2.2015    1.0000 </r>
       <r>    6.2113    1.0000 </r>
       <r>    7.7104    1.0000 </r>
       <r>    7.7105    1.0000 </r>
       <r>    8.1669    1.0000 </r>
       <r>    9.3520    1.0000 </r>
       <r>   27.3036    0.0000 </r>
       <r>   28.2105    0.0000 </r>
       <r>   29.4619    0.0000 </r>
       <r>   29.4620    0.0000 </r>
       <r>   35.8243    0.0000 </r>
       <r>   36.9565    0.0000 </r>
      </set>
      <set comment="kpoint 17">
       <r>    3.8681    1.0000 </r>
       <r>    5.8992    1.0000 </r>
       <r>    7.1100    1.0000 </r>
       <r>    8.0142    1.0000 </r>
       <r>    9.5593    1.0000 </r>
       <r>   10.0361    1.0000 </r>
       <r>   23.1133    0.0000 </r>
       <r>   27.4736    0.0000 </r>
       <r>   28.1255    0.0000 </r>
       <r>   30.1172    0.0000 </r>
       <r>   34.3463    0.0000 </r>
       <r>   36.4661    0.0000 </r>
      </set>
      <set comment="kpoint 18">
       <r>    3.8681    1.0000 </r>
       <r>    5.8992    1.0000 </r>
       <r>    7.1100    1.0000 </r>
       <r>    8.0142    1.0000 </r>
       <r>    9.5593    1.0000 </r>
       <r>   10.0361    1.0000 </r>
       <r>   23.1133    0.0000 </r>
       <r>   27.4736    0.0000 </r>
       <r>   28.1255    0.0000 </r>
       <r>   30.1172    0.0000 </r>
       <r>   34.3463    0.0000 </r>
       <r>   36.4661    0.0000 </r>
      </set>
      <set comment="kpoint 19">
       <r>    3.8681    1.0000 </r>
       <r>    5.8992    1.0000 </r>
       <r>    7.1100    1.0000 </r>
       <r>    8.0142    1.0000 </r>
       <r>    9.5593    1.0000 </r>
       <r>   10.0361    1.0000 </r>
       <r>   23.1133    0.0000 </r>
       <r>   27.4736    0.0000 </r>
       <r>   28.1255    0.0000 </r>
       <r>   30.1172    0.0000 </r>
       <r>   34.3463    0.0000 </r>
       <r>   36.4661    0.0000 </r>
      </set>
      <set comment="kpoint 20">
       <r>    3.8681    1.0000 </r>
       <r>    5.8992    1.0000 </r>
       <r>    7.1100    1.0000 </r>
       <r>    8.0143    1.0000 </r>
       <r>    9.5593    1.0000 </r>
       <r>   10.0361    1.0000 </r>
       <r>   23.1132    0.0000 </r>
       <r>   27.4736    0.0000 </r>
       <r>   28.1257    0.0000 </r>
       <r>   30.1172    0.0000 </r>
       <r>   34.3461    0.0000 </r>
       <r>   36.4662    0.0000 </r>
      </set>
      <set comment="kpoint 21">
       <r>    3.8680    1.0000 </r>
       <r>    5.8992    1.0000 </r>
       <r>    7.1100    1.0000 </r>
       <r>    8.0142    1.0000 </r>
       <r>    9.5593    1.0000 </r>
       <r>   10.0361    1.0000 </r>
       <r>   23.1131    0.0000 </r>
       <r>   27.4736    0.0000 </r>
       <r>   28.1257    0.0000 </r>
       <r>   30.1172    0.0000 </r>
       <r>   34.3463    0.0000 </r>
       <r>   36.4662    0.0000 </r>
      </set>
      <set comment="kpoint 22">
       <r>    3.8681    1.0000 </r>
       <r>    5.8992    1.0000 </r>
       <r>    7.1100    1.0000 </r>
       <r>    8.0142    1.0000 </r>
       <r>    9.5593    1.0000 </r>
       <r>   10.0361    1.0000 </r>
       <r>   23.1133    0.0000 </r>
       <r>   27.4736    0.0000 </r>
       <r>   28.1255    0.0000 </r>
       <r>   30.1172    0.0000 </r>
       <r>   34.3463    0.0000 </r>
       <r>   36.4661    0.0000 </r>
      </set>
      <set comment="kpoint 23">
       <r>    3.8681    1.0000 </r>
       <r>    5.8992    1.0000 </r>
       <r>    7.1100    1.0000 </r>
       <r>    8.0143    1.0000 </r>
       <r>    9.5593    1.0000 </r>
       <r>   10.0361    1.0000 </r>
       <r>   23.1132    0.0000 </r>
       <r>   27.4736    0.0000 </r>
       <r>   28.1257    0.0000 </r>
       <r>   30.1172    0.0000 </r>
       <r>   34.3461    0.0000 </r>
       <r>   36.4662    0.0000 </r>
      </set>
      <set comment="kpoint 24">
       <r>    3.8680    1.0000 </r>
       <r>    5.8992    1.0000 </r>
       <r>    7.1100    1.0000 </r>
       <r>    8.0142    1.0000 </r>
       <r>    9.5593    1.0000 </r>
       <r>   10.0361    1.0000 </r>
       <r>   23.1131    0.0000 </r>
       <r>   27.4736    0.0000 </r>
       <r>   28.1257    0.0000 </r>
       <r>   30.1172    0.0000 </r>
       <r>   34.3463    0.0000 </r>
       <r>   36.4662    0.0000 </r>
      </set>
      <set comment="kpoint 25">
       <r>    3.8681    1.0000 </r>
       <r>    5.8992    1.0000 </r>
       <r>    7.1100    1.0000 </r>
       <r>    8.0142    1.0000 </r>
       <r>    9.5593    1.0000 </r>
       <r>   10.0361    1.0000 </r>
       <r>   23.1133    0.0000 </r>
       <r>   27.4736    0.0000 </r>
       <r>   28.1255    0.0000 </r>
       <r>   30.1172    0.0000 </r>
       <r>   34.3463    0.0000 </r>
       <r>   36.4661    0.0000 </r>
      </set>
      <set comment="kpoint 26">
       <r>    3.8681    1.0000 </r>
       <r>    5.8992    1.0000 </r>
       <r>    7.1100    1.0000 </r>
       <r>    8.0143    1.0000 </r>
       <r>    9.5593    1.0000 </r>
       <r>   10.0361    1.0000 </r>
       <r>   23.1132    0.0000 </r>
       <r>   27.4736    0.0000 </r>
       <r>   28.1257    0.0000 </r>
       <r>   30.1172    0.0000 </r>
       <r>   34.3461    0.0000 </r>
       <r>   36.4662    0.0000 </r>
      </set>
      <set comment="kpoint 27">
       <r>    3.8680    1.0000 </r>
       <r>    5.8992    1.0000 </r>
       <r>    7.1100    1.0000 </r>
       <r>    8.0142    1.0000 </r>
       <r>    9.5593    1.0000 </r>
       <r>   10.0361    1.0000 </r>
       <r>   23.1131    0.0000 </r>
       <r>   27.4736    0.0000 </r>
       <r>   28.1257    0.0000 </r>
       <r>   30.1172    0.0000 </r>
       <r>   34.3463    0.0000 </r>
       <r>   36.4662    0.0000 </r>
      </set>
      <set comment="kpoint 28">
       <r>    3.8681    1.0000 </r>
       <r>    5.8992    1.0000 </r>
       <r>    7.1100    1.0000 </r>
       <r>    8.0142    1.0000 </r>
       <r>    9.5593    1.0000 </r>
       <r>   10.0361    1.0000 </r>
       <r>   23.1133    0.0000 </r>
       <r>   27.4736    0.0000 </r>
       <r>   28.1255    0.0000 </r>
       <r>   30.1172    0.0000 </r>
       <r>   34.3463    0.0000 </r>
       <r>   36.4661    0.0000 </r>
      </set>
      <set comment="kpoint 29">
       <r>    4.3896    1.0000 </r>
       <r>    6.4088    1.0000 </r>
       <r>    7.5859    1.0000 </r>
       <r>    7.6691    1.0000 </r>
       <r>   10.6118    0.0582 </r>
       <r>   12.9639    0.0000 </r>
       <r>   16.7929    0.0000 </r>
       <r>   25.6220    0.0000 </r>
       <r>   27.6746    0.0000 </r>
       <r>   28.0771    0.0000 </r>
       <r>   37.4339    0.0000 </r>
       <r>   38.5620    0.0000 </r>
      </set>
      <set comment="kpoint 30">
       <r>    4.3896    1.0000 </r>
       <r>    6.4088    1.0000 </r>
       <r>    7.5859    1.0000 </r>
       <r>    7.6691    1.0000 </r>
       <r>   10.6118    0.0582 </r>
       <r>   12.9639    0.0000 </r>
       <r>   16.7929    0.0000 </r>
       <r>   25.6220    0.0000 </r>
       <r>   27.6746    0.0000 </r>
       <r>   28.0771    0.0000 </r>
       <r>   37.4339    0.0000 </r>
       <r>   38.5620    0.0000 </r>
      </set>
      <set comment="kpoint 31">
       <r>    4.3896    1.0000 </r>
       <r>    6.4088    1.0000 </r>
       <r>    7.5859    1.0000 </r>
       <r>    7.6691    1.0000 </r>
       <r>   10.6118    0.0582 </r>
       <r>   12.9639    0.0000 </r>
       <r>   16.7929    0.0000 </r>
       <r>   25.6220    0.0000 </r>
       <r>   27.6746    0.0000 </r>
       <r>   28.0771    0.0000 </r>
       <r>   37.4339    0.0000 </r>
       <r>   38.5620    0.0000 </r>
      </set>
      <set comment="kpoint 32">
       <r>    4.3896    1.0000 </r>
       <r>    6.4088    1.0000 </r>
       <r>    7.5859    1.0000 </r>
       <r>    7.6692    1.0000 </r>
       <r>   10.6118    0.0581 </r>
       <r>   12.9639    0.0000 </r>
       <r>   16.7929    0.0000 </r>
       <r>   25.6219    0.0000 </r>
       <r>   27.6747    0.0000 </r>
       <r>   28.0771    0.0000 </r>
       <r>   37.4340    0.0000 </r>
       <r>   38.5620    0.0000 </r>
      </set>
      <set comment="kpoint 33">
       <r>    4.3896    1.0000 </r>
       <r>    6.4088    1.0000 </r>
       <r>    7.5858    1.0000 </r>
       <r>    7.6691    1.0000 </r>
       <r>   10.6118    0.0582 </r>
       <r>   12.9638    0.0000 </r>
       <r>   16.7928    0.0000 </r>
       <r>   25.6221    0.0000 </r>
       <r>   27.6748    0.0000 </r>
       <r>   28.0772    0.0000 </r>
       <r>   37.4340    0.0000 </r>
       <r>   38.5621    0.0000 </r>
      </set>
      <set comment="kpoint 34">
       <r>    4.3896    1.0000 </r>
       <r>    6.4088    1.0000 </r>
       <r>    7.5859    1.0000 </r>
       <r>    7.6691    1.0000 </r>
       <r>   10.6118    0.0582 </r>
       <r>   12.9639    0.0000 </r>
       <r>   16.7929    0.0000 </r>
       <r>   25.6220    0.0000 </r>
       <r>   27.6746    0.0000 </r>
       <r>   28.0771    0.0000 </r>
       <r>   37.4339    0.0000 </r>
       <r>   38.5620    0.0000 </r>
      </set>
      <set comment="kpoint 35">
       <r>    4.3896    1.0000 </r>
       <r>    6.4088    1.0000 </r>
       <r>    7.5859    1.0000 </r>
       <r>    7.6692    1.0000 </r>
       <r>   10.6118    0.0581 </r>
       <r>   12.9639    0.0000 </r>
       <r>   16.7929    0.0000 </r>
       <r>   25.6219    0.0000 </r>
       <r>   27.6747    0.0000 </r>
       <r>   28.0771    0.0000 </r>
       <r>   37.4340    0.0000 </r>
       <r>   38.5620    0.0000 </r>
      </set>
      <set comment="kpoint 36">
       <r>    4.3896    1.0000 </r>
       <r>    6.4088    1.0000 </r>
       <r>    7.5858    1.0000 </r>
       <r>    7.6691    1.0000 </r>
       <r>   10.6118    0.0582 </r>
       <r>   12.9638    0.0000 </r>
       <r>   16.7928    0.0000 </r>
       <r>   25.6221    0.0000 </r>
       <r>   27.6748    0.0000 </r>
       <r>   28.0772    0.0000 </r>
       <r>   37.4340    0.0000 </r>
       <r>   38.5621    0.0000 </r>
      </set>
      <set comment="kpoint 37">
       <r>    4.3896    1.0000 </r>
       <r>    6.4088    1.0000 </r>
       <r>    7.5859    1.0000 </r>
       <r>    7.6691    1.0000 </r>
       <r>   10.6118    0.0582 </r>
       <r>   12.9639    0.0000 </r>
       <r>   16.7929    0.0000 </r>
       <r>   25.6220    0.0000 </r>
       <r>   27.6746    0.0000 </r>
       <r>   28.0771    0.0000 </r>
       <r>   37.4339    0.0000 </r>
       <r>   38.5620    0.0000 </r>
      </set>
      <set comment="kpoint 38">
       <r>    4.3896    1.0000 </r>
       <r>    6.4088    1.0000 </r>
       <r>    7.5859    1.0000 </r>
       <r>    7.6692    1.0000 </r>
       <r>   10.6118    0.0581 </r>
       <r>   12.9639    0.0000 </r>
       <r>   16.7929    0.0000 </r>
       <r>   25.6219    0.0000 </r>
       <r>   27.6747    0.0000 </r>
       <r>   28.0771    0.0000 </r>
       <r>   37.4340    0.0000 </r>
       <r>   38.5620    0.0000 </r>
      </set>
      <set comment="kpoint 39">
       <r>    4.3896    1.0000 </r>
       <r>    6.4088    1.0000 </r>
       <r>    7.5858    1.0000 </r>
       <r>    7.6691    1.0000 </r>
       <r>   10.6118    0.0582 </r>
       <r>   12.9638    0.0000 </r>
       <r>   16.7928    0.0000 </r>
       <r>   25.6221    0.0000 </r>
       <r>   27.6748    0.0000 </r>
       <r>   28.0772    0.0000 </r>
       <r>   37.4340    0.0000 </r>
       <r>   38.5621    0.0000 </r>
      </set>
      <set comment="kpoint 40">
       <r>    4.3896    1.0000 </r>
       <r>    6.4088    1.0000 </r>
       <r>    7.5859    1.0000 </r>
       <r>    7.6691    1.0000 </r>
       <r>   10.6118    0.0582 </r>
       <r>   12.9639    0.0000 </r>
       <r>   16.7929    0.0000 </r>
       <r>   25.6220    0.0000 </r>
       <r>   27.6746    0.0000 </r>
       <r>   28.0771    0.0000 </r>
       <r>   37.4339    0.0000 </r>
       <r>   38.5620    0.0000 </r>
      </set>
      <set comment="kpoint 41">
       <r>    4.4845    1.0000 </r>
       <r>    6.5973    1.0000 </r>
       <r>    7.2474    1.0000 </r>
       <r>    7.6416    1.0000 </r>
       <r>    9.5330    1.0000 </r>
       <r>   12.1998    0.0000 </r>
       <r>   18.9831    0.0000 </r>
       <r>   25.1572    0.0000 </r>
       <r>   27.3726    0.0000 </r>
       <r>   30.7766    0.0000 </r>
       <r>   34.5375    0.0000 </r>
       <r>   38.0469    0.0000 </r>
      </set>
      <set comment="kpoint 42">
       <r>    4.4845    1.0000 </r>
       <r>    6.5973    1.0000 </r>
       <r>    7.2474    1.0000 </r>
       <r>    7.6416    1.0000 </r>
       <r>    9.5330    1.0000 </r>
       <r>   12.1998    0.0000 </r>
       <r>   18.9831    0.0000 </r>
       <r>   25.1572    0.0000 </r>
       <r>   27.3726    0.0000 </r>
       <r>   30.7766    0.0000 </r>
       <r>   34.5375    0.0000 </r>
       <r>   38.0469    0.0000 </r>
      </set>
      <set comment="kpoint 43">
       <r>    4.4845    1.0000 </r>
       <r>    6.5973    1.0000 </r>
       <r>    7.2474    1.0000 </r>
       <r>    7.6416    1.0000 </r>
       <r>    9.5330    1.0000 </r>
       <r>   12.1998    0.0000 </r>
       <r>   18.9831    0.0000 </r>
       <r>   25.1572    0.0000 </r>
       <r>   27.3726    0.0000 </r>
       <r>   30.7766    0.0000 </r>
       <r>   34.5375    0.0000 </r>
       <r>   38.0469    0.0000 </r>
      </set>
      <set comment="kpoint 44">
       <r>    4.4845    1.0000 </r>
       <r>    6.5972    1.0000 </r>
       <r>    7.2474    1.0000 </r>
       <r>    7.6417    1.0000 </r>
       <r>    9.5331    1.0000 </r>
       <r>   12.1997    0.0000 </r>
       <r>   18.9831    0.0000 </r>
       <r>   25.1571    0.0000 </r>
       <r>   27.3726    0.0000 </r>
       <r>   30.7768    0.0000 </r>
       <r>   34.5376    0.0000 </r>
       <r>   38.0470    0.0000 </r>
      </set>
      <set comment="kpoint 45">
       <r>    4.4845    1.0000 </r>
       <r>    6.5973    1.0000 </r>
       <r>    7.2474    1.0000 </r>
       <r>    7.6417    1.0000 </r>
       <r>    9.5331    1.0000 </r>
       <r>   12.1997    0.0000 </r>
       <r>   18.9829    0.0000 </r>
       <r>   25.1573    0.0000 </r>
       <r>   27.3727    0.0000 </r>
       <r>   30.7768    0.0000 </r>
       <r>   34.5375    0.0000 </r>
       <r>   38.0471    0.0000 </r>
      </set>
      <set comment="kpoint 46">
       <r>    4.4845    1.0000 </r>
       <r>    6.5973    1.0000 </r>
       <r>    7.2474    1.0000 </r>
       <r>    7.6416    1.0000 </r>
       <r>    9.5330    1.0000 </r>
       <r>   12.1998    0.0000 </r>
       <r>   18.9831    0.0000 </r>
       <r>   25.1572    0.0000 </r>
       <r>   27.3726    0.0000 </r>
       <r>   30.7766    0.0000 </r>
       <r>   34.5375    0.0000 </r>
       <r>   38.0469    0.0000 </r>
      </set>
      <set comment="kpoint 47">
       <r>    4.4845    1.0000 </r>
       <r>    6.5972    1.0000 </r>
       <r>    7.2474    1.0000 </r>
       <r>    7.6417    1.0000 </r>
       <r>    9.5331    1.0000 </r>
       <r>   12.1997    0.0000 </r>
       <r>   18.9831    0.0000 </r>
       <r>   25.1571    0.0000 </r>
       <r>   27.3727    0.0000 </r>
       <r>   30.7768    0.0000 </r>
       <r>   34.5376    0.0000 </r>
       <r>   38.0470    0.0000 </r>
      </set>
      <set comment="kpoint 48">
       <r>    4.4845    1.0000 </r>
       <r>    6.5973    1.0000 </r>
       <r>    7.2474    1.0000 </r>
       <r>    7.6417    1.0000 </r>
       <r>    9.5331    1.0000 </r>
       <r>   12.1997    0.0000 </r>
       <r>   18.9829    0.0000 </r>
       <r>   25.1573    0.0000 </r>
       <r>   27.3727    0.0000 </r>
       <r>   30.7768    0.0000 </r>
       <r>   34.5375    0.0000 </r>
       <r>   38.0471    0.0000 </r>
      </set>
      <set comment="kpoint 49">
       <r>    4.4845    1.0000 </r>
       <r>    6.5973    1.0000 </r>
       <r>    7.2474    1.0000 </r>
       <r>    7.6416    1.0000 </r>
       <r>    9.5330    1.0000 </r>
       <r>   12.1998    0.0000 </r>
       <r>   18.9831    0.0000 </r>
       <r>   25.1572    0.0000 </r>
       <r>   27.3726    0.0000 </r>
       <r>   30.7766    0.0000 </r>
       <r>   34.5375    0.0000 </r>
       <r>   38.0469    0.0000 </r>
      </set>
      <set comment="kpoint 50">
       <r>    4.4845    1.0000 </r>
       <r>    6.5972    1.0000 </r>
       <r>    7.2474    1.0000 </r>
       <r>    7.6417    1.0000 </r>
       <r>    9.5331    1.0000 </r>
       <r>   12.1997    0.0000 </r>
       <r>   18.9831    0.0000 </r>
       <r>   25.1571    0.0000 </r>
       <r>   27.3726    0.0000 </r>
       <r>   30.7768    0.0000 </r>
       <r>   34.5376    0.0000 </r>
       <r>   38.0470    0.0000 </r>
      </set>
      <set comment="kpoint 51">
       <r>    4.4845    1.0000 </r>
       <r>    6.5973    1.0000 </r>
       <r>    7.2474    1.0000 </r>
       <r>    7.6417    1.0000 </r>
       <r>    9.5331    1.0000 </r>
       <r>   12.1997    0.0000 </r>
       <r>   18.9829    0.0000 </r>
       <r>   25.1573    0.0000 </r>
       <r>   27.3727    0.0000 </r>
       <r>   30.7768    0.0000 </r>
       <r>   34.5375    0.0000 </r>
       <r>   38.0471    0.0000 </r>
      </set>
      <set comment="kpoint 52">
       <r>    4.4845    1.0000 </r>
       <r>    6.5973    1.0000 </r>
       <r>    7.2474    1.0000 </r>
       <r>    7.6416    1.0000 </r>
       <r>    9.5330    1.0000 </r>
       <r>   12.1998    0.0000 </r>
       <r>   18.9831    0.0000 </r>
       <r>   25.1572    0.0000 </r>
       <r>   27.3726    0.0000 </r>
       <r>   30.7766    0.0000 </r>
       <r>   34.5375    0.0000 </r>
       <r>   38.0469    0.0000 </r>
      </set>
      <set comment="kpoint 53">
       <r>    3.3082    1.0000 </r>
       <r>    6.2060    1.0000 </r>
       <r>    7.2949    1.0000 </r>
       <r>    7.9391    1.0000 </r>
       <r>    8.2205    1.0000 </r>
       <r>   10.1122    1.0000 </r>
       <r>   24.4324    0.0000 </r>
       <r>   26.6687    0.0000 </r>
       <r>   30.0602    0.0000 </r>
       <r>   30.1982    0.0000 </r>
       <r>   34.8040    0.0000 </r>
       <r>   37.5475    0.0000 </r>
      </set>
      <set comment="kpoint 54">
       <r>    3.3082    1.0000 </r>
       <r>    6.2060    1.0000 </r>
       <r>    7.2949    1.0000 </r>
       <r>    7.9391    1.0000 </r>
       <r>    8.2205    1.0000 </r>
       <r>   10.1122    1.0000 </r>
       <r>   24.4324    0.0000 </r>
       <r>   26.6687    0.0000 </r>
       <r>   30.0602    0.0000 </r>
       <r>   30.1982    0.0000 </r>
       <r>   34.8040    0.0000 </r>
       <r>   37.5475    0.0000 </r>
      </set>
      <set comment="kpoint 55">
       <r>    3.3082    1.0000 </r>
       <r>    6.2060    1.0000 </r>
       <r>    7.2949    1.0000 </r>
       <r>    7.9391    1.0000 </r>
       <r>    8.2205    1.0000 </r>
       <r>   10.1122    1.0000 </r>
       <r>   24.4324    0.0000 </r>
       <r>   26.6687    0.0000 </r>
       <r>   30.0602    0.0000 </r>
       <r>   30.1982    0.0000 </r>
       <r>   34.8040    0.0000 </r>
       <r>   37.5475    0.0000 </r>
      </set>
      <set comment="kpoint 56">
       <r>    3.3082    1.0000 </r>
       <r>    6.2060    1.0000 </r>
       <r>    7.2948    1.0000 </r>
       <r>    7.9391    1.0000 </r>
       <r>    8.2205    1.0000 </r>
       <r>   10.1122    1.0000 </r>
       <r>   24.4323    0.0000 </r>
       <r>   26.6686    0.0000 </r>
       <r>   30.0602    0.0000 </r>
       <r>   30.1983    0.0000 </r>
       <r>   34.8040    0.0000 </r>
       <r>   37.5477    0.0000 </r>
      </set>
      <set comment="kpoint 57">
       <r>    3.3082    1.0000 </r>
       <r>    6.2060    1.0000 </r>
       <r>    7.2948    1.0000 </r>
       <r>    7.9391    1.0000 </r>
       <r>    8.2205    1.0000 </r>
       <r>   10.1122    1.0000 </r>
       <r>   24.4323    0.0000 </r>
       <r>   26.6686    0.0000 </r>
       <r>   30.0602    0.0000 </r>
       <r>   30.1983    0.0000 </r>
       <r>   34.8040    0.0000 </r>
       <r>   37.5477    0.0000 </r>
      </set>
      <set comment="kpoint 58">
       <r>    3.3082    1.0000 </r>
       <r>    6.2060    1.0000 </r>
       <r>    7.2948    1.0000 </r>
       <r>    7.9391    1.0000 </r>
       <r>    8.2205    1.0000 </r>
       <r>   10.1122    1.0000 </r>
       <r>   24.4323    0.0000 </r>
       <r>   26.6686    0.0000 </r>
       <r>   30.0602    0.0000 </r>
       <r>   30.1983    0.0000 </r>
       <r>   34.8040    0.0000 </r>
       <r>   37.5477    0.0000 </r>
      </set>
      <set comment="kpoint 59">
       <r>    4.1789    1.0000 </r>
       <r>    4.9107    1.0000 </r>
       <r>    8.6243    1.0000 </r>
       <r>    9.5772    1.0000 </r>
       <r>    9.5772    1.0000 </r>
       <r>   10.1074    1.0000 </r>
       <r>   24.7517    0.0000 </r>
       <r>   24.7519    0.0000 </r>
       <r>   25.2655    0.0000 </r>
       <r>   29.1592    0.0000 </r>
       <r>   31.2907    0.0000 </r>
       <r>   39.7661    0.0000 </r>
      </set>
      <set comment="kpoint 60">
       <r>    4.1789    1.0000 </r>
       <r>    4.9107    1.0000 </r>
       <r>    8.6243    1.0000 </r>
       <r>    9.5772    1.0000 </r>
       <r>    9.5772    1.0000 </r>
       <r>   10.1074    1.0000 </r>
       <r>   24.7517    0.0000 </r>
       <r>   24.7519    0.0000 </r>
       <r>   25.2655    0.0000 </r>
       <r>   29.1592    0.0000 </r>
       <r>   31.2907    0.0000 </r>
       <r>   39.7660    0.0000 </r>
      </set>
      <set comment="kpoint 61">
       <r>    4.1789    1.0000 </r>
       <r>    4.9107    1.0000 </r>
       <r>    8.6243    1.0000 </r>
       <r>    9.5772    1.0000 </r>
       <r>    9.5772    1.0000 </r>
       <r>   10.1074    1.0000 </r>
       <r>   24.7517    0.0000 </r>
       <r>   24.7519    0.0000 </r>
       <r>   25.2655    0.0000 </r>
       <r>   29.1592    0.0000 </r>
       <r>   31.2907    0.0000 </r>
       <r>   39.7660    0.0000 </r>
      </set>
      <set comment="kpoint 62">
       <r>    4.4507    1.0000 </r>
       <r>    4.9941    1.0000 </r>
       <r>    8.3499    1.0000 </r>
       <r>    9.4530    1.0000 </r>
       <r>   10.7473    0.0000 </r>
       <r>   13.5065    0.0000 </r>
       <r>   18.8688    0.0000 </r>
       <r>   22.5820    0.0000 </r>
       <r>   23.9586    0.0000 </r>
       <r>   30.4730    0.0000 </r>
       <r>   34.1973    0.0000 </r>
       <r>   38.3294    0.0000 </r>
      </set>
      <set comment="kpoint 63">
       <r>    4.4507    1.0000 </r>
       <r>    4.9941    1.0000 </r>
       <r>    8.3499    1.0000 </r>
       <r>    9.4530    1.0000 </r>
       <r>   10.7473    0.0000 </r>
       <r>   13.5065    0.0000 </r>
       <r>   18.8689    0.0000 </r>
       <r>   22.5820    0.0000 </r>
       <r>   23.9586    0.0000 </r>
       <r>   30.4730    0.0000 </r>
       <r>   34.1973    0.0000 </r>
       <r>   38.3294    0.0000 </r>
      </set>
      <set comment="kpoint 64">
       <r>    4.4507    1.0000 </r>
       <r>    4.9941    1.0000 </r>
       <r>    8.3499    1.0000 </r>
       <r>    9.4530    1.0000 </r>
       <r>   10.7473    0.0000 </r>
       <r>   13.5065    0.0000 </r>
       <r>   18.8688    0.0000 </r>
       <r>   22.5820    0.0000 </r>
       <r>   23.9586    0.0000 </r>
       <r>   30.4730    0.0000 </r>
       <r>   34.1973    0.0000 </r>
       <r>   38.3294    0.0000 </r>
      </set>
      <set comment="kpoint 65">
       <r>    4.4506    1.0000 </r>
       <r>    4.9941    1.0000 </r>
       <r>    8.3499    1.0000 </r>
       <r>    9.4531    1.0000 </r>
       <r>   10.7473    0.0000 </r>
       <r>   13.5065    0.0000 </r>
       <r>   18.8688    0.0000 </r>
       <r>   22.5819    0.0000 </r>
       <r>   23.9588    0.0000 </r>
       <r>   30.4731    0.0000 </r>
       <r>   34.1970    0.0000 </r>
       <r>   38.3294    0.0000 </r>
      </set>
      <set comment="kpoint 66">
       <r>    4.4506    1.0000 </r>
       <r>    4.9941    1.0000 </r>
       <r>    8.3499    1.0000 </r>
       <r>    9.4531    1.0000 </r>
       <r>   10.7472    0.0000 </r>
       <r>   13.5064    0.0000 </r>
       <r>   18.8687    0.0000 </r>
       <r>   22.5820    0.0000 </r>
       <r>   23.9588    0.0000 </r>
       <r>   30.4732    0.0000 </r>
       <r>   34.1971    0.0000 </r>
       <r>   38.3295    0.0000 </r>
      </set>
      <set comment="kpoint 67">
       <r>    4.4507    1.0000 </r>
       <r>    4.9941    1.0000 </r>
       <r>    8.3499    1.0000 </r>
       <r>    9.4530    1.0000 </r>
       <r>   10.7473    0.0000 </r>
       <r>   13.5065    0.0000 </r>
       <r>   18.8688    0.0000 </r>
       <r>   22.5820    0.0000 </r>
       <r>   23.9586    0.0000 </r>
       <r>   30.4730    0.0000 </r>
       <r>   34.1973    0.0000 </r>
       <r>   38.3294    0.0000 </r>
      </set>
      <set comment="kpoint 68">
       <r>    4.4506    1.0000 </r>
       <r>    4.9941    1.0000 </r>
       <r>    8.3499    1.0000 </r>
       <r>    9.4531    1.0000 </r>
       <r>   10.7473    0.0000 </r>
       <r>   13.5065    0.0000 </r>
       <r>   18.8688    0.0000 </r>
       <r>   22.5819    0.0000 </r>
       <r>   23.9588    0.0000 </r>
       <r>   30.4731    0.0000 </r>
       <r>   34.1970    0.0000 </r>
       <r>   38.3294    0.0000 </r>
      </set>
      <set comment="kpoint 69">
       <r>    4.4506    1.0000 </r>
       <r>    4.9941    1.0000 </r>
       <r>    8.3499    1.0000 </r>
       <r>    9.4531    1.0000 </r>
       <r>   10.7472    0.0000 </r>
       <r>   13.5064    0.0000 </r>
       <r>   18.8687    0.0000 </r>
       <r>   22.5820    0.0000 </r>
       <r>   23.9588    0.0000 </r>
       <r>   30.4732    0.0000 </r>
       <r>   34.1971    0.0000 </r>
       <r>   38.3295    0.0000 </r>
      </set>
      <set comment="kpoint 70">
       <r>    4.4507    1.0000 </r>
       <r>    4.9941    1.0000 </r>
       <r>    8.3499    1.0000 </r>
       <r>    9.4530    1.0000 </r>
       <r>   10.7473    0.0000 </r>
       <r>   13.5065    0.0000 </r>
       <r>   18.8689    0.0000 </r>
       <r>   22.5820    0.0000 </r>
       <r>   23.9586    0.0000 </r>
       <r>   30.4730    0.0000 </r>
       <r>   34.1973    0.0000 </r>
       <r>   38.3294    0.0000 </r>
      </set>
      <set comment="kpoint 71">
       <r>    4.4506    1.0000 </r>
       <r>    4.9941    1.0000 </r>
       <r>    8.3499    1.0000 </r>
       <r>    9.4531    1.0000 </r>
       <r>   10.7473    0.0000 </r>
       <r>   13.5065    0.0000 </r>
       <r>   18.8688    0.0000 </r>
       <r>   22.5819    0.0000 </r>
       <r>   23.9588    0.0000 </r>
       <r>   30.4731    0.0000 </r>
       <r>   34.1971    0.0000 </r>
       <r>   38.3294    0.0000 </r>
      </set>
      <set comment="kpoint 72">
       <r>    4.4506    1.0000 </r>
       <r>    4.9941    1.0000 </r>
       <r>    8.3499    1.0000 </r>
       <r>    9.4531    1.0000 </r>
       <r>   10.7472    0.0000 </r>
       <r>   13.5064    0.0000 </r>
       <r>   18.8687    0.0000 </r>
       <r>   22.5820    0.0000 </r>
       <r>   23.9588    0.0000 </r>
       <r>   30.4732    0.0000 </r>
       <r>   34.1971    0.0000 </r>
       <r>   38.3295    0.0000 </r>
      </set>
      <set comment="kpoint 73">
       <r>    4.4507    1.0000 </r>
       <r>    4.9941    1.0000 </r>
       <r>    8.3499    1.0000 </r>
       <r>    9.4530    1.0000 </r>
       <r>   10.7473    0.0000 </r>
       <r>   13.5065    0.0000 </r>
       <r>   18.8688    0.0000 </r>
       <r>   22.5820    0.0000 </r>
       <r>   23.9586    0.0000 </r>
       <r>   30.4730    0.0000 </r>
       <r>   34.1973    0.0000 </r>
       <r>   38.3294    0.0000 </r>
      </set>
      <set comment="kpoint 74">
       <r>    5.0684    1.0000 </r>
       <r>    5.9965    1.0000 </r>
       <r>    7.0975    1.0000 </r>
       <r>    8.7800    1.0000 </r>
       <r>    9.9331    1.0000 </r>
       <r>   14.7894    0.0000 </r>
       <r>   19.0711    0.0000 </r>
       <r>   19.9644    0.0000 </r>
       <r>   26.9193    0.0000 </r>
       <r>   29.1872    0.0000 </r>
       <r>   36.8724    0.0000 </r>
       <r>   37.5885    0.0000 </r>
      </set>
      <set comment="kpoint 75">
       <r>    5.0684    1.0000 </r>
       <r>    5.9965    1.0000 </r>
       <r>    7.0975    1.0000 </r>
       <r>    8.7800    1.0000 </r>
       <r>    9.9331    1.0000 </r>
       <r>   14.7894    0.0000 </r>
       <r>   19.0711    0.0000 </r>
       <r>   19.9644    0.0000 </r>
       <r>   26.9193    0.0000 </r>
       <r>   29.1872    0.0000 </r>
       <r>   36.8724    0.0000 </r>
       <r>   37.5885    0.0000 </r>
      </set>
      <set comment="kpoint 76">
       <r>    5.0684    1.0000 </r>
       <r>    5.9965    1.0000 </r>
       <r>    7.0975    1.0000 </r>
       <r>    8.7800    1.0000 </r>
       <r>    9.9331    1.0000 </r>
       <r>   14.7894    0.0000 </r>
       <r>   19.0711    0.0000 </r>
       <r>   19.9644    0.0000 </r>
       <r>   26.9193    0.0000 </r>
       <r>   29.1872    0.0000 </r>
       <r>   36.8724    0.0000 </r>
       <r>   37.5885    0.0000 </r>
      </set>
      <set comment="kpoint 77">
       <r>    5.0683    1.0000 </r>
       <r>    5.9965    1.0000 </r>
       <r>    7.0975    1.0000 </r>
       <r>    8.7800    1.0000 </r>
       <r>    9.9331    1.0000 </r>
       <r>   14.7893    0.0000 </r>
       <r>   19.0711    0.0000 </r>
       <r>   19.9644    0.0000 </r>
       <r>   26.9195    0.0000 </r>
       <r>   29.1873    0.0000 </r>
       <r>   36.8724    0.0000 </r>
       <r>   37.5886    0.0000 </r>
      </set>
      <set comment="kpoint 78">
       <r>    5.0683    1.0000 </r>
       <r>    5.9965    1.0000 </r>
       <r>    7.0975    1.0000 </r>
       <r>    8.7800    1.0000 </r>
       <r>    9.9331    1.0000 </r>
       <r>   14.7893    0.0000 </r>
       <r>   19.0711    0.0000 </r>
       <r>   19.9644    0.0000 </r>
       <r>   26.9195    0.0000 </r>
       <r>   29.1873    0.0000 </r>
       <r>   36.8724    0.0000 </r>
       <r>   37.5886    0.0000 </r>
      </set>
      <set comment="kpoint 79">
       <r>    5.0683    1.0000 </r>
       <r>    5.9965    1.0000 </r>
       <r>    7.0975    1.0000 </r>
       <r>    8.7800    1.0000 </r>
       <r>    9.9331    1.0000 </r>
       <r>   14.7893    0.0000 </r>
       <r>   19.0711    0.0000 </r>
       <r>   19.9644    0.0000 </r>
       <r>   26.9195    0.0000 </r>
       <r>   29.1873    0.0000 </r>
       <r>   36.8724    0.0000 </r>
       <r>   37.5886    0.0000 </r>
      </set>
      <set comment="kpoint 80">
       <r>    3.9329    1.0000 </r>
       <r>    4.3549    1.0000 </r>
       <r>   10.5219    0.8349 </r>
       <r>   10.9720    0.0000 </r>
       <r>   10.9720    0.0000 </r>
       <r>   12.4571    0.0000 </r>
       <r>   19.0301    0.0000 </r>
       <r>   21.8586    0.0000 </r>
       <r>   21.8588    0.0000 </r>
       <r>   30.2103    0.0000 </r>
       <r>   33.2835    0.0000 </r>
       <r>   38.8901    0.0000 </r>
      </set>
      <set comment="kpoint 81">
       <r>    3.9329    1.0000 </r>
       <r>    4.3549    1.0000 </r>
       <r>   10.5219    0.8349 </r>
       <r>   10.9720    0.0000 </r>
       <r>   10.9720    0.0000 </r>
       <r>   12.4571    0.0000 </r>
       <r>   19.0301    0.0000 </r>
       <r>   21.8586    0.0000 </r>
       <r>   21.8588    0.0000 </r>
       <r>   30.2103    0.0000 </r>
       <r>   33.2835    0.0000 </r>
       <r>   38.8901    0.0000 </r>
      </set>
      <set comment="kpoint 82">
       <r>    3.9329    1.0000 </r>
       <r>    4.3549    1.0000 </r>
       <r>   10.5219    0.8349 </r>
       <r>   10.9720    0.0000 </r>
       <r>   10.9720    0.0000 </r>
       <r>   12.4571    0.0000 </r>
       <r>   19.0301    0.0000 </r>
       <r>   21.8586    0.0000 </r>
       <r>   21.8588    0.0000 </r>
       <r>   30.2103    0.0000 </r>
       <r>   33.2835    0.0000 </r>
       <r>   38.8901    0.0000 </r>
      </set>
      <set comment="kpoint 83">
       <r>    5.1969    1.0000 </r>
       <r>    5.5862    1.0000 </r>
       <r>    6.5010    1.0000 </r>
       <r>    9.0806    1.0000 </r>
       <r>    9.5697    1.0000 </r>
       <r>   12.4407    0.0000 </r>
       <r>   21.0150    0.0000 </r>
       <r>   22.9851    0.0000 </r>
       <r>   26.0234    0.0000 </r>
       <r>   32.5402    0.0000 </r>
       <r>   32.5545    0.0000 </r>
       <r>   38.4447    0.0000 </r>
      </set>
      <set comment="kpoint 84">
       <r>    5.1969    1.0000 </r>
       <r>    5.5862    1.0000 </r>
       <r>    6.5010    1.0000 </r>
       <r>    9.0806    1.0000 </r>
       <r>    9.5697    1.0000 </r>
       <r>   12.4407    0.0000 </r>
       <r>   21.0150    0.0000 </r>
       <r>   22.9851    0.0000 </r>
       <r>   26.0234    0.0000 </r>
       <r>   32.5402    0.0000 </r>
       <r>   32.5545    0.0000 </r>
       <r>   38.4447    0.0000 </r>
      </set>
      <set comment="kpoint 85">
       <r>    5.1969    1.0000 </r>
       <r>    5.5862    1.0000 </r>
       <r>    6.5010    1.0000 </r>
       <r>    9.0806    1.0000 </r>
       <r>    9.5697    1.0000 </r>
       <r>   12.4407    0.0000 </r>
       <r>   21.0150    0.0000 </r>
       <r>   22.9851    0.0000 </r>
       <r>   26.0234    0.0000 </r>
       <r>   32.5402    0.0000 </r>
       <r>   32.5545    0.0000 </r>
       <r>   38.4447    0.0000 </r>
      </set>
      <set comment="kpoint 86">
       <r>    5.1969    1.0000 </r>
       <r>    5.5862    1.0000 </r>
       <r>    6.5010    1.0000 </r>
       <r>    9.0806    1.0000 </r>
       <r>    9.5697    1.0000 </r>
       <r>   12.4407    0.0000 </r>
       <r>   21.0150    0.0000 </r>
       <r>   22.9851    0.0000 </r>
       <r>   26.0233    0.0000 </r>
       <r>   32.5401    0.0000 </r>
       <r>   32.5545    0.0000 </r>
       <r>   38.4446    0.0000 </r>
      </set>
      <set comment="kpoint 87">
       <r>    5.1969    1.0000 </r>
       <r>    5.5862    1.0000 </r>
       <r>    6.5010    1.0000 </r>
       <r>    9.0806    1.0000 </r>
       <r>    9.5697    1.0000 </r>
       <r>   12.4407    0.0000 </r>
       <r>   21.0150    0.0000 </r>
       <r>   22.9851    0.0000 </r>
       <r>   26.0234    0.0000 </r>
       <r>   32.5402    0.0000 </r>
       <r>   32.5545    0.0000 </r>
       <r>   38.4447    0.0000 </r>
      </set>
      <set comment="kpoint 88">
       <r>    5.1969    1.0000 </r>
       <r>    5.5862    1.0000 </r>
       <r>    6.5010    1.0000 </r>
       <r>    9.0806    1.0000 </r>
       <r>    9.5697    1.0000 </r>
       <r>   12.4407    0.0000 </r>
       <r>   21.0150    0.0000 </r>
       <r>   22.9851    0.0000 </r>
       <r>   26.0233    0.0000 </r>
       <r>   32.5401    0.0000 </r>
       <r>   32.5545    0.0000 </r>
       <r>   38.4446    0.0000 </r>
      </set>
      <set comment="kpoint 89">
       <r>    5.1969    1.0000 </r>
       <r>    5.5862    1.0000 </r>
       <r>    6.5010    1.0000 </r>
       <r>    9.0806    1.0000 </r>
       <r>    9.5697    1.0000 </r>
       <r>   12.4407    0.0000 </r>
       <r>   21.0150    0.0000 </r>
       <r>   22.9851    0.0000 </r>
       <r>   26.0233    0.0000 </r>
       <r>   32.5401    0.0000 </r>
       <r>   32.5545    0.0000 </r>
       <r>   38.4446    0.0000 </r>
      </set>
      <set comment="kpoint 90">
       <r>    5.1969    1.0000 </r>
       <r>    5.5862    1.0000 </r>
       <r>    6.5010    1.0000 </r>
       <r>    9.0806    1.0000 </r>
       <r>    9.5697    1.0000 </r>
       <r>   12.4407    0.0000 </r>
       <r>   21.0150    0.0000 </r>
       <r>   22.9851    0.0000 </r>
       <r>   26.0233    0.0000 </r>
       <r>   32.5401    0.0000 </r>
       <r>   32.5545    0.0000 </r>
       <r>   38.4446    0.0000 </r>
      </set>
      <set comment="kpoint 91">
       <r>    5.1969    1.0000 </r>
       <r>    5.5862    1.0000 </r>
       <r>    6.5010    1.0000 </r>
       <r>    9.0806    1.0000 </r>
       <r>    9.5697    1.0000 </r>
       <r>   12.4407    0.0000 </r>
       <r>   21.0150    0.0000 </r>
       <r>   22.9851    0.0000 </r>
       <r>   26.0234    0.0000 </r>
       <r>   32.5402    0.0000 </r>
       <r>   32.5545    0.0000 </r>
       <r>   38.4447    0.0000 </r>
      </set>
      <set comment="kpoint 92">
       <r>    5.1969    1.0000 </r>
       <r>    5.5862    1.0000 </r>
       <r>    6.5010    1.0000 </r>
       <r>    9.0806    1.0000 </r>
       <r>    9.5697    1.0000 </r>
       <r>   12.4407    0.0000 </r>
       <r>   21.0150    0.0000 </r>
       <r>   22.9851    0.0000 </r>
       <r>   26.0233    0.0000 </r>
       <r>   32.5401    0.0000 </r>
       <r>   32.5545    0.0000 </r>
       <r>   38.4446    0.0000 </r>
      </set>
      <set comment="kpoint 93">
       <r>    5.1969    1.0000 </r>
       <r>    5.5862    1.0000 </r>
       <r>    6.5010    1.0000 </r>
       <r>    9.0806    1.0000 </r>
       <r>    9.5697    1.0000 </r>
       <r>   12.4407    0.0000 </r>
       <r>   21.0150    0.0000 </r>
       <r>   22.9851    0.0000 </r>
       <r>   26.0233    0.0000 </r>
       <r>   32.5401    0.0000 </r>
       <r>   32.5545    0.0000 </r>
       <r>   38.4446    0.0000 </r>
      </set>
      <set comment="kpoint 94">
       <r>    5.1969    1.0000 </r>
       <r>    5.5862    1.0000 </r>
       <r>    6.5010    1.0000 </r>
       <r>    9.0806    1.0000 </r>
       <r>    9.5697    1.0000 </r>
       <r>   12.4407    0.0000 </r>
       <r>   21.0150    0.0000 </r>
       <r>   22.9851    0.0000 </r>
       <r>   26.0234    0.0000 </r>
       <r>   32.5402    0.0000 </r>
       <r>   32.5545    0.0000 </r>
       <r>   38.4447    0.0000 </r>
      </set>
      <set comment="kpoint 95">
       <r>    5.5369    1.0000 </r>
       <r>    5.6524    1.0000 </r>
       <r>    6.7595    1.0000 </r>
       <r>    8.5776    1.0000 </r>
       <r>   10.3978    1.0000 </r>
       <r>   15.9811    0.0000 </r>
       <r>   16.4698    0.0000 </r>
       <r>   22.5134    0.0000 </r>
       <r>   24.2907    0.0000 </r>
       <r>   31.1907    0.0000 </r>
       <r>   35.4458    0.0000 </r>
       <r>   40.2546    0.0000 </r>
      </set>
      <set comment="kpoint 96">
       <r>    5.5369    1.0000 </r>
       <r>    5.6524    1.0000 </r>
       <r>    6.7595    1.0000 </r>
       <r>    8.5776    1.0000 </r>
       <r>   10.3978    1.0000 </r>
       <r>   15.9811    0.0000 </r>
       <r>   16.4698    0.0000 </r>
       <r>   22.5134    0.0000 </r>
       <r>   24.2907    0.0000 </r>
       <r>   31.1907    0.0000 </r>
       <r>   35.4458    0.0000 </r>
       <r>   40.2546    0.0000 </r>
      </set>
      <set comment="kpoint 97">
       <r>    5.5369    1.0000 </r>
       <r>    5.6524    1.0000 </r>
       <r>    6.7595    1.0000 </r>
       <r>    8.5776    1.0000 </r>
       <r>   10.3978    1.0000 </r>
       <r>   15.9811    0.0000 </r>
       <r>   16.4698    0.0000 </r>
       <r>   22.5134    0.0000 </r>
       <r>   24.2907    0.0000 </r>
       <r>   31.1907    0.0000 </r>
       <r>   35.4458    0.0000 </r>
       <r>   40.2546    0.0000 </r>
      </set>
      <set comment="kpoint 98">
       <r>    5.5369    1.0000 </r>
       <r>    5.6524    1.0000 </r>
       <r>    6.7595    1.0000 </r>
       <r>    8.5776    1.0000 </r>
       <r>   10.3978    1.0000 </r>
       <r>   15.9810    0.0000 </r>
       <r>   16.4697    0.0000 </r>
       <r>   22.5135    0.0000 </r>
       <r>   24.2908    0.0000 </r>
       <r>   31.1908    0.0000 </r>
       <r>   35.4457    0.0000 </r>
       <r>   40.2548    0.0000 </r>
      </set>
      <set comment="kpoint 99">
       <r>    5.5370    1.0000 </r>
       <r>    5.6525    1.0000 </r>
       <r>    6.7595    1.0000 </r>
       <r>    8.5775    1.0000 </r>
       <r>   10.3978    1.0000 </r>
       <r>   15.9811    0.0000 </r>
       <r>   16.4698    0.0000 </r>
       <r>   22.5134    0.0000 </r>
       <r>   24.2907    0.0000 </r>
       <r>   31.1907    0.0000 </r>
       <r>   35.4457    0.0000 </r>
       <r>   40.2546    0.0000 </r>
      </set>
      <set comment="kpoint 100">
       <r>    5.5369    1.0000 </r>
       <r>    5.6524    1.0000 </r>
       <r>    6.7595    1.0000 </r>
       <r>    8.5776    1.0000 </r>
       <r>   10.3978    1.0000 </r>
       <r>   15.9811    0.0000 </r>
       <r>   16.4698    0.0000 </r>
       <r>   22.5134    0.0000 </r>
       <r>   24.2907    0.0000 </r>
       <r>   31.1907    0.0000 </r>
       <r>   35.4458    0.0000 </r>
       <r>   40.2546    0.0000 </r>
      </set>
[...]
       </set>
       <set comment="band 5">
        <r>  0.0105  0.0015  0.0006  0.0002  0.0687  0.0020  0.0840  0.2511  0.5544 </r>
       </set>
       <set comment="band 6">
        <r>  0.5293  0.0419  0.0157  0.0052  0.0475  0.0094  0.0425  0.1671  0.0030 </r>
       </set>
       <set comment="band 7">
        <r>  0.0000  0.0336  0.3074  0.1950  0.0358  0.0778  0.1855  0.0053  0.0279 </r>
       </set>
       <set comment="band 8">
        <r>  0.1098  0.3482  0.1306  0.0435  0.0001  0.1535  0.0750  0.0118  0.0002 </r>
       </set>
       <set comment="band 9">
        <r>  0.0000  0.0672  0.0154  0.2686  0.1993  0.0255  0.0083  0.0723  0.0858 </r>
       </set>
       <set comment="band 10">
        <r>  0.0000  0.0643  0.0556  0.0954  0.0051  0.0082  0.0405  0.0213  0.0429 </r>
       </set>
       <set comment="band 11">
        <r>  0.0006  0.0102  0.0038  0.0013  0.1874  0.0027  0.0937  0.0962  0.0631 </r>
       </set>
       <set comment="band 12">
        <r>  0.0000  0.0086  0.0040  0.0233  0.0546  0.0017  0.0332  0.0622  0.1049 </r>
       </set>
      </set>
      <set comment="kpoint 102">
       <set comment="band 1">
        <r>  0.0856  0.0531  0.0000  0.0265  0.0001  0.2240  0.0705  0.4479  0.0000 </r>
       </set>
       <set comment="band 2">
        <r>  0.0000  0.0172  0.0015  0.0344  0.0076  0.5037  0.0000  0.2519  0.0609 </r>
       </set>
       <set comment="band 3">
        <r>  0.0000  0.0082  0.1231  0.0164  0.0810  0.0189  0.0000  0.0094  0.6484 </r>
       </set>
       <set comment="band 4">
        <r>  0.0093  0.0158  0.0000  0.0079  0.7817  0.0006  0.0269  0.0013  0.0977 </r>
       </set>
       <set comment="band 5">
        <r>  0.0105  0.0015  0.0000  0.0008  0.0289  0.0418  0.8022  0.0836  0.0036 </r>
       </set>
       <set comment="band 6">
        <r>  0.5293  0.0419  0.0000  0.0210  0.0006  0.0562  0.1001  0.1124  0.0001 </r>
       </set>
       <set comment="band 7">
        <r>  0.0000  0.0336  0.4352  0.0673  0.0216  0.0919  0.0000  0.0460  0.1727 </r>
       </set>
       <set comment="band 8">
        <r>  0.1098  0.3482  0.0000  0.1741  0.1181  0.0354  0.0014  0.0709  0.0148 </r>
       </set>
       <set comment="band 9">
        <r>  0.0000  0.0672  0.1496  0.1345  0.0072  0.2175  0.0000  0.1088  0.0577 </r>
       </set>
       <set comment="band 10">
        <r>  0.0000  0.0643  0.0224  0.1286  0.0131  0.0003  0.0000  0.0001  0.1046 </r>
       </set>
       <set comment="band 11">
        <r>  0.0006  0.0101  0.0000  0.0051  0.0684  0.1217  0.0010  0.2435  0.0086 </r>
       </set>
       <set comment="band 12">
        <r>  0.0000  0.0086  0.0101  0.0172  0.0230  0.0330  0.0000  0.0165  0.1840 </r>
       </set>
      </set>
      <set comment="kpoint 103">
       <set comment="band 1">
        <r>  0.0856  0.0000  0.0199  0.0597  0.0007  0.0020  0.2885  0.0757  0.3756 </r>
       </set>
       <set comment="band 2">
        <r>  0.0000  0.0266  0.0199  0.0066  0.2340  0.0780  0.2881  0.1280  0.0960 </r>
       </set>
       <set comment="band 3">
        <r>  0.0000  0.1422  0.0042  0.0014  0.2982  0.0994  0.2026  0.0900  0.0675 </r>
       </set>
       <set comment="band 4">
        <r>  0.0093  0.0000  0.0059  0.0178  0.0872  0.2615  0.0387  0.3819  0.1389 </r>
       </set>
       <set comment="band 5">
        <r>  0.0105  0.0000  0.0006  0.0017  0.1460  0.4381  0.0207  0.2487  0.1066 </r>
       </set>
       <set comment="band 6">
        <r>  0.5293  0.0000  0.0157  0.0472  0.0045  0.0135  0.0881  0.0116  0.1518 </r>
       </set>
       <set comment="band 7">
        <r>  0.0000  0.5214  0.0111  0.0037  0.2333  0.0778  0.0119  0.0053  0.0040 </r>
       </set>
       <set comment="band 8">
        <r>  0.1098  0.0000  0.1306  0.3917  0.0156  0.0469  0.0157  0.0194  0.1430 </r>
       </set>
       <set comment="band 9">
        <r>  0.0000  0.0032  0.2611  0.0870  0.0765  0.0255  0.1627  0.0723  0.0542 </r>
       </set>
       <set comment="band 10">
        <r>  0.0000  0.0173  0.1485  0.0495  0.0246  0.0082  0.0479  0.0213  0.0160 </r>
       </set>
       <set comment="band 11">
        <r>  0.0006  0.0000  0.0038  0.0114  0.0005  0.0015  0.1884  0.1928  0.0599 </r>
       </set>
       <set comment="band 12">
        <r>  0.0000  0.0001  0.0268  0.0089  0.0049  0.0016  0.1405  0.0625  0.0469 </r>
       </set>
      </set>
      <set comment="kpoint 104">
       <set comment="band 1">
        <r>  0.0856  0.0000  0.0199  0.0597  0.0611  0.1834  0.2178  0.1554  0.1247 </r>
       </set>
       <set comment="band 2">
        <r>  0.0000  0.0098  0.0325  0.0108  0.5559  0.1853  0.0467  0.0207  0.0156 </r>
       </set>
       <set comment="band 3">
        <r>  0.0000  0.0384  0.0820  0.0273  0.0948  0.0316  0.3551  0.1578  0.1184 </r>
       </set>
       <set comment="band 4">
        <r>  0.0093  0.0000  0.0059  0.0178  0.0788  0.2363  0.0626  0.4272  0.1032 </r>
       </set>
       <set comment="band 5">
        <r>  0.0105  0.0000  0.0006  0.0017  0.0697  0.2092  0.0840  0.0439  0.5533 </r>
       </set>
       <set comment="band 6">
        <r>  0.5293  0.0000  0.0157  0.0472  0.0416  0.1247  0.0425  0.0517  0.0089 </r>
       </set>
       <set comment="band 7">
        <r>  0.0000  0.1262  0.3074  0.1025  0.0018  0.0006  0.1855  0.0825  0.0618 </r>
       </set>
       <set comment="band 8">
        <r>  0.1098  0.0000  0.1306  0.3917  0.0003  0.0008  0.0750  0.1645  0.0000 </r>
       </set>
       <set comment="band 9">
        <r>  0.0000  0.3307  0.0154  0.0051  0.2823  0.0941  0.0083  0.0037  0.0028 </r>
       </set>
       <set comment="band 10">
        <r>  0.0000  0.1412  0.0556  0.0185  0.0346  0.0115  0.0405  0.0180  0.0135 </r>
       </set>
       <set comment="band 11">
        <r>  0.0006  0.0000  0.0038  0.0114  0.0320  0.0960  0.0937  0.0029  0.2185 </r>
       </set>
       <set comment="band 12">
        <r>  0.0000  0.0307  0.0040  0.0014  0.1477  0.0497  0.0333  0.0148  0.0111 </r>
       </set>
      </set>
      <set comment="kpoint 105">
       <set comment="band 1">
        <r>  0.0856  0.0531  0.0199  0.0066  0.1643  0.0597  0.2886  0.0180  0.2119 </r>
       </set>
       <set comment="band 2">
        <r>  0.0000  0.0172  0.0199  0.0160  0.3261  0.1853  0.2881  0.0207  0.0040 </r>
       </set>
       <set comment="band 3">
        <r>  0.0000  0.0082  0.0042  0.1354  0.0683  0.0316  0.2026  0.1578  0.2974 </r>
       </set>
       <set comment="band 4">
        <r>  0.0093  0.0158  0.0059  0.0020  0.2152  0.5671  0.0387  0.0762  0.0109 </r>
       </set>
       <set comment="band 5">
        <r>  0.0105  0.0015  0.0006  0.0002  0.0085  0.0623  0.0207  0.6246  0.2441 </r>
       </set>
       <set comment="band 6">
        <r>  0.5293  0.0419  0.0157  0.0052  0.0371  0.0197  0.0881  0.0054  0.1191 </r>
       </set>
       <set comment="band 7">
        <r>  0.0000  0.0336  0.0111  0.4914  0.1129  0.0006  0.0119  0.0825  0.1243 </r>
       </set>
       <set comment="band 8">
        <r>  0.1098  0.3482  0.1306  0.0435  0.1121  0.0414  0.0157  0.0249  0.0465 </r>
       </set>
       <set comment="band 9">
        <r>  0.0000  0.0672  0.2611  0.0230  0.1306  0.0941  0.1627  0.0037  0.0001 </r>
       </set>
       <set comment="band 10">
        <r>  0.0000  0.0643  0.1485  0.0025  0.0018  0.0115  0.0479  0.0180  0.0388 </r>
       </set>
       <set comment="band 11">
        <r>  0.0006  0.0102  0.0038  0.0013  0.0294  0.1608  0.1884  0.0336  0.0310 </r>
       </set>
       <set comment="band 12">
        <r>  0.0000  0.0086  0.0267  0.0005  0.0067  0.0496  0.1403  0.0146  0.0451 </r>
       </set>
      </set>
      <set comment="kpoint 106">
       <set comment="band 1">
        <r>  0.0856  0.0531  0.0199  0.0066  0.1717  0.0524  0.2178  0.2863  0.0142 </r>
       </set>
       <set comment="band 2">
        <r>  0.0000  0.0172  0.0325  0.0035  0.4333  0.0780  0.0467  0.1281  0.1381 </r>
       </set>
       <set comment="band 3">
        <r>  0.0000  0.0082  0.0820  0.0575  0.0005  0.0994  0.3551  0.0900  0.2127 </r>
       </set>
       <set comment="band 4">
        <r>  0.0093  0.0158  0.0059  0.0020  0.1766  0.6057  0.0626  0.0578  0.0054 </r>
       </set>
       <set comment="band 5">
        <r>  0.0105  0.0015  0.0006  0.0002  0.0687  0.0020  0.0840  0.2511  0.5544 </r>
       </set>
       <set comment="band 6">
        <r>  0.5293  0.0419  0.0157  0.0052  0.0475  0.0094  0.0425  0.1671  0.0030 </r>
       </set>
       <set comment="band 7">
        <r>  0.0000  0.0336  0.3074  0.1950  0.0358  0.0778  0.1855  0.0053  0.0279 </r>
       </set>
       <set comment="band 8">
        <r>  0.1098  0.3481  0.1306  0.0435  0.0001  0.1535  0.0750  0.0118  0.0002 </r>
       </set>
       <set comment="band 9">
        <r>  0.0000  0.0673  0.0154  0.2686  0.1992  0.0255  0.0083  0.0723  0.0858 </r>
       </set>
       <set comment="band 10">
        <r>  0.0000  0.0643  0.0556  0.0954  0.0051  0.0082  0.0405  0.0213  0.0429 </r>
       </set>
       <set comment="band 11">
        <r>  0.0006  0.0102  0.0038  0.0013  0.1875  0.0027  0.0937  0.0962  0.0631 </r>
       </set>
       <set comment="band 12">
        <r>  0.0000  0.0086  0.0040  0.0234  0.0543  0.0017  0.0334  0.0625  0.1049 </r>
       </set>
      </set>
      <set comment="kpoint 107">
       <set comment="band 1">
        <r>  0.0336  0.0137  0.0206  0.0069  0.5101  0.0160  0.1913  0.0080  0.0638 </r>
       </set>
       <set comment="band 2">
        <r>  0.0000  0.0171  0.0256  0.0085  0.1944  0.0000  0.6560  0.0000  0.0243 </r>
       </set>
       <set comment="band 3">
        <r>  0.0000  0.0550  0.0000  0.1100  0.0415  0.1245  0.0000  0.2489  0.3319 </r>
       </set>
       <set comment="band 4">
        <r>  0.0306  0.0040  0.0060  0.0020  0.0165  0.5838  0.0062  0.2919  0.0021 </r>
       </set>
       <set comment="band 5">
        <r>  0.0000  0.0000  0.0000  0.0000  0.0549  0.1648  0.0000  0.3296  0.4394 </r>
       </set>
       <set comment="band 6">
        <r>  0.0000  0.1999  0.0000  0.3997  0.0160  0.0479  0.0000  0.0959  0.1278 </r>
       </set>
       <set comment="band 7">
        <r>  0.6654  0.0056  0.0084  0.0028  0.0558  0.0388  0.0209  0.0194  0.0070 </r>
       </set>
       <set comment="band 8">
        <r>  0.0000  0.2169  0.3254  0.1085  0.0345  0.0000  0.1165  0.0000  0.0043 </r>
       </set>
       <set comment="band 9">
        <r>  0.0035  0.1274  0.1910  0.0637  0.2314  0.0548  0.0868  0.0274  0.0289 </r>
       </set>
       <set comment="band 10">
        <r>  0.0000  0.0013  0.0019  0.0006  0.1526  0.0000  0.5150  0.0000  0.0191 </r>
       </set>
       <set comment="band 11">
        <r>  0.1213  0.0788  0.1182  0.0394  0.1239  0.0087  0.0464  0.0043  0.0155 </r>
       </set>
       <set comment="band 12">
        <r>  0.0000  0.0026  0.0000  0.0053  0.0122  0.0365  0.0000  0.0730  0.0973 </r>
       </set>
      </set>
      <set comment="kpoint 108">
       <set comment="band 1">
        <r>  0.0336  0.0137  0.0000  0.0274  0.0613  0.4648  0.0230  0.2324  0.0077 </r>
       </set>
       <set comment="band 2">
        <r>  0.0000  0.0171  0.0256  0.0085  0.0486  0.1458  0.0000  0.2916  0.3887 </r>
       </set>
       <set comment="band 3">
        <r>  0.0000  0.0550  0.0825  0.0275  0.0415  0.1245  0.0000  0.2489  0.3319 </r>
       </set>
       <set comment="band 4">
        <r>  0.0306  0.0040  0.0000  0.0081  0.5270  0.0733  0.1976  0.0367  0.0659 </r>
       </set>
       <set comment="band 5">
        <r>  0.0000  0.0000  0.0000  0.0000  0.2197  0.0000  0.7415  0.0000  0.0275 </r>
       </set>
       <set comment="band 6">
        <r>  0.0000  0.1999  0.2998  0.0999  0.0160  0.0479  0.0000  0.0959  0.1278 </r>
       </set>
       <set comment="band 7">
        <r>  0.6654  0.0056  0.0000  0.0112  0.0834  0.0112  0.0313  0.0056  0.0104 </r>
       </set>
       <set comment="band 8">
        <r>  0.0000  0.2169  0.3254  0.1085  0.0086  0.0259  0.0000  0.0518  0.0691 </r>
       </set>
       <set comment="band 9">
        <r>  0.0035  0.1274  0.0000  0.2547  0.0014  0.2847  0.0005  0.1423  0.0002 </r>
       </set>
       <set comment="band 10">
        <r>  0.0000  0.0013  0.0019  0.0006  0.0381  0.1144  0.0000  0.2289  0.3052 </r>
       </set>
       <set comment="band 11">
        <r>  0.1213  0.0788  0.0000  0.1576  0.0659  0.0667  0.0247  0.0333  0.0082 </r>
       </set>
       <set comment="band 12">
        <r>  0.0000  0.0026  0.0040  0.0013  0.0122  0.0365  0.0000  0.0730  0.0973 </r>
       </set>
      </set>
      <set comment="kpoint 109">
       <set comment="band 1">
        <r>  0.0336  0.0137  0.0206  0.0069  0.2177  0.3084  0.0816  0.1542  0.0272 </r>
       </set>
       <set comment="band 2">
        <r>  0.0000  0.0171  0.0000  0.0342  0.0486  0.1458  0.0000  0.2915  0.3887 </r>
       </set>
       <set comment="band 3">
        <r>  0.0000  0.0550  0.0825  0.0275  0.1659  0.0000  0.5601  0.0000  0.0207 </r>
       </set>
       <set comment="band 4">
        <r>  0.0306  0.0040  0.0060  0.0020  0.3570  0.2433  0.1339  0.1217  0.0446 </r>
       </set>
       <set comment="band 5">
        <r>  0.0000  0.0000  0.0000  0.0000  0.0549  0.1648  0.0000  0.3296  0.4394 </r>
       </set>
       <set comment="band 6">
        <r>  0.0000  0.1999  0.2998  0.0999  0.0639  0.0000  0.2157  0.0000  0.0080 </r>
       </set>
       <set comment="band 7">
        <r>  0.6654  0.0056  0.0084  0.0028  0.0028  0.0918  0.0010  0.0459  0.0003 </r>
       </set>
       <set comment="band 8">
        <r>  0.0000  0.2170  0.0000  0.4339  0.0086  0.0259  0.0000  0.0518  0.0691 </r>
       </set>
       <set comment="band 9">
        <r>  0.0035  0.1274  0.1910  0.0637  0.1964  0.0897  0.0736  0.0449  0.0246 </r>
       </set>
       <set comment="band 10">
        <r>  0.0000  0.0013  0.0000  0.0025  0.0381  0.1145  0.0000  0.2288  0.3052 </r>
       </set>
       <set comment="band 11">
        <r>  0.1213  0.0788  0.1182  0.0394  0.0091  0.1234  0.0034  0.0617  0.0011 </r>
       </set>
       <set comment="band 12">
        <r>  0.0000  0.0026  0.0040  0.0013  0.0487  0.0000  0.1642  0.0000  0.0061 </r>
       </set>
      </set>
      <set comment="kpoint 110">
       <set comment="band 1">
        <r>  0.0336  0.0137  0.0206  0.0069  0.5101  0.0160  0.1913  0.0080  0.0638 </r>
       </set>
       <set comment="band 2">
        <r>  0.0000  0.0171  0.0256  0.0085  0.1944  0.0000  0.6560  0.0000  0.0243 </r>
       </set>
       <set comment="band 3">
        <r>  0.0000  0.0550  0.0000  0.1100  0.0415  0.1245  0.0000  0.2489  0.3319 </r>
       </set>
       <set comment="band 4">
        <r>  0.0306  0.0040  0.0060  0.0020  0.0165  0.5838  0.0062  0.2919  0.0021 </r>
       </set>
       <set comment="band 5">
        <r>  0.0000  0.0000  0.0000  0.0000  0.0549  0.1648  0.0000  0.3296  0.4394 </r>
       </set>
       <set comment="band 6">
        <r>  0.0000  0.1999  0.0000  0.3997  0.0160  0.0479  0.0000  0.0959  0.1278 </r>
       </set>
       <set comment="band 7">
        <r>  0.6654  0.0056  0.0084  0.0028  0.0558  0.0388  0.0209  0.0194  0.0070 </r>
       </set>
       <set comment="band 8">
        <r>  0.0000  0.2169  0.3254  0.1085  0.0345  0.0000  0.1165  0.0000  0.0043 </r>
       </set>
       <set comment="band 9">
        <r>  0.0035  0.1274  0.1910  0.0637  0.2314  0.0548  0.0868  0.0274  0.0289 </r>
       </set>
       <set comment="band 10">
        <r>  0.0000  0.0013  0.0019  0.0006  0.1526  0.0000  0.5150  0.0000  0.0191 </r>
       </set>
       <set comment="band 11">
        <r>  0.1213  0.0788  0.1182  0.0394  0.1239  0.0087  0.0464  0.0043  0.0155 </r>
       </set>
       <set comment="band 12">
        <r>  0.0000  0.0026  0.0000  0.0053  0.0122  0.0365  0.0000  0.0730  0.0973 </r>
       </set>
      </set>
      <set comment="kpoint 111">
       <set comment="band 1">
        <r>  0.0336  0.0137  0.0000  0.0274  0.0613  0.4648  0.0230  0.2324  0.0077 </r>
       </set>
       <set comment="band 2">
        <r>  0.0000  0.0171  0.0256  0.0085  0.0486  0.1458  0.0000  0.2915  0.3887 </r>
       </set>
       <set comment="band 3">
        <r>  0.0000  0.0550  0.0825  0.0275  0.0415  0.1245  0.0000  0.2489  0.3319 </r>
       </set>
       <set comment="band 4">
        <r>  0.0306  0.0040  0.0000  0.0081  0.5270  0.0733  0.1976  0.0367  0.0659 </r>
       </set>
       <set comment="band 5">
        <r>  0.0000  0.0000  0.0000  0.0000  0.2197  0.0000  0.7415  0.0000  0.0275 </r>
       </set>
       <set comment="band 6">
        <r>  0.0000  0.1999  0.2998  0.0999  0.0160  0.0479  0.0000  0.0959  0.1278 </r>
       </set>
       <set comment="band 7">
        <r>  0.6654  0.0056  0.0000  0.0112  0.0834  0.0112  0.0313  0.0056  0.0104 </r>
       </set>
       <set comment="band 8">
        <r>  0.0000  0.2170  0.3254  0.1085  0.0086  0.0259  0.0000  0.0518  0.0691 </r>
       </set>
       <set comment="band 9">
        <r>  0.0035  0.1274  0.0000  0.2547  0.0014  0.2847  0.0005  0.1424  0.0002 </r>
       </set>
       <set comment="band 10">
        <r>  0.0000  0.0013  0.0019  0.0006  0.0382  0.1145  0.0000  0.2289  0.3052 </r>
       </set>
       <set comment="band 11">
        <r>  0.1213  0.0788  0.0000  0.1576  0.0658  0.0666  0.0247  0.0334  0.0082 </r>
       </set>
       <set comment="band 12">
        <r>  0.0000  0.0026  0.0040  0.0013  0.0122  0.0365  0.0000  0.0730  0.0973 </r>
       </set>
      </set>
      <set comment="kpoint 112">
       <set comment="band 1">
        <r>  0.0336  0.0137  0.0206  0.0069  0.2177  0.3084  0.0816  0.1542  0.0272 </r>
       </set>
       <set comment="band 2">
        <r>  0.0000  0.0171  0.0000  0.0342  0.0486  0.1458  0.0000  0.2916  0.3887 </r>
       </set>
       <set comment="band 3">
        <r>  0.0000  0.0550  0.0825  0.0275  0.1659  0.0000  0.5601  0.0000  0.0207 </r>
       </set>
       <set comment="band 4">
        <r>  0.0306  0.0040  0.0060  0.0020  0.3570  0.2433  0.1339  0.1217  0.0446 </r>
       </set>
       <set comment="band 5">
        <r>  0.0000  0.0000  0.0000  0.0000  0.0549  0.1648  0.0000  0.3296  0.4394 </r>
       </set>
       <set comment="band 6">
        <r>  0.0000  0.1999  0.2998  0.0999  0.0639  0.0000  0.2157  0.0000  0.0080 </r>
       </set>
       <set comment="band 7">
        <r>  0.6654  0.0056  0.0084  0.0028  0.0028  0.0918  0.0010  0.0459  0.0003 </r>
       </set>
       <set comment="band 8">
        <r>  0.0000  0.2169  0.0000  0.4339  0.0086  0.0259  0.0000  0.0518  0.0691 </r>
       </set>
       <set comment="band 9">
        <r>  0.0035  0.1274  0.1910  0.0637  0.1964  0.0897  0.0736  0.0449  0.0245 </r>
       </set>
       <set comment="band 10">
        <r>  0.0000  0.0013  0.0000  0.0025  0.0381  0.1144  0.0000  0.2289  0.3052 </r>
       </set>
       <set comment="band 11">
        <r>  0.1213  0.0788  0.1182  0.0394  0.0091  0.1235  0.0034  0.0617  0.0011 </r>
       </set>
       <set comment="band 12">
        <r>  0.0000  0.0026  0.0040  0.0013  0.0487  0.0000  0.1642  0.0000  0.0061 </r>
       </set>
      </set>
     </set>
    </set>
   </array>
  </projected>
 </calculation>
 <structure name="finalpos" >
  <crystal>
   <varray name="basis" >
    <v>       2.43486100       0.00000500       1.40578200 </v>
    <v>       0.81162600       2.29560600       1.40578200 </v>
    <v>       0.00000700       0.00000500       2.81154200 </v>
   </varray>
   <i name="volume">     15.71501664 </i>
   <varray name="rec_basis" >
    <v>       0.41070180      -0.14520575      -0.00000076 </v>
    <v>      -0.00000045       0.43561545      -0.00000077 </v>
    <v>      -0.20535228      -0.14520599       0.35567748 </v>
   </varray>
  </crystal>
  <varray name="positions" >
   <v>       0.00000000       0.00000000       0.00000000 </v>
  </varray>
 </structure>
</modeling>
