       N       E                     dE             d eps       ncg     rms          rms(c)
DAV:   1     0.384397025405E+02    0.38440E+02   -0.48822E+03  6320   0.697E+02
DAV:   2    -0.517311941445E+01   -0.43613E+02   -0.41879E+02  7488   0.163E+02
DAV:   3    -0.576162433270E+01   -0.58850E+00   -0.58598E+00  7624   0.176E+01
DAV:   4    -0.576392532805E+01   -0.23010E-02   -0.23008E-02  7620   0.130E+00
DAV:   5    -0.576394319683E+01   -0.17869E-04   -0.17869E-04  7740   0.104E-01    0.126E+01
DAV:   6    -0.545487125323E+01    0.30907E+00   -0.61232E-01  6792   0.606E+00    0.679E+00
DAV:   7    -0.541441964526E+01    0.40452E-01   -0.14788E-01  7364   0.294E+00    0.242E+00
DAV:   8    -0.541144395203E+01    0.29757E-02   -0.66988E-03  6920   0.654E-01    0.629E-01
DAV:   9    -0.541118803918E+01    0.25591E-03   -0.17602E-04  7212   0.109E-01    0.690E-02
DAV:  10    -0.541118973642E+01   -0.16972E-05   -0.64667E-06  3476   0.206E-02
   1 F= -.54111897E+01 E0= -.54097792E+01  d E =-.282115E-02
