       N       E                     dE             d eps       ncg     rms          rms(c)
DAV:   1     0.114514394118E+04    0.11451E+04   -0.61875E+04   848   0.112E+03
DAV:   2     0.231349039584E+01   -0.11428E+04   -0.10568E+04  1080   0.248E+02
DAV:   3    -0.102789363498E+03   -0.10510E+03   -0.97690E+02   976   0.752E+01
DAV:   4    -0.106920229794E+03   -0.41309E+01   -0.39158E+01  1160   0.141E+01
DAV:   5    -0.107030844814E+03   -0.11062E+00   -0.10944E+00  1096   0.234E+00    0.377E+01
DAV:   6    -0.107841892023E+03   -0.81105E+00   -0.16629E+01   984   0.227E+01    0.397E+01
DAV:   7    -0.128248249197E+03   -0.20406E+02   -0.56592E+01  1136   0.475E+01    0.488E+01
DAV:   8    -0.119536924288E+03    0.87113E+01   -0.10185E+02  1152   0.488E+01    0.437E+01
DAV:   9    -0.108414503059E+03    0.11122E+02   -0.63843E+01  1056   0.416E+01    0.285E+01
DAV:  10    -0.107156546170E+03    0.12580E+01   -0.21898E+01   904   0.196E+01    0.233E+01
DAV:  11    -0.107962189307E+03   -0.80564E+00   -0.24848E+01   952   0.324E+01    0.234E+01
DAV:  12    -0.106612846085E+03    0.13493E+01   -0.42651E+00   984   0.103E+01    0.179E+01
DAV:  13    -0.102124200131E+03    0.44886E+01   -0.21998E+00   936   0.960E+00    0.104E+01
DAV:  14    -0.100817667277E+03    0.13065E+01   -0.40052E+00   896   0.852E+00    0.754E+00
DAV:  15    -0.100974053586E+03   -0.15639E+00   -0.88650E-01   912   0.437E+00    0.859E+00
DAV:  16    -0.100843822881E+03    0.13023E+00   -0.10151E+00   912   0.366E+00    0.691E+00
DAV:  17    -0.100792027403E+03    0.51795E-01   -0.59479E-02   968   0.153E+00    0.641E+00
DAV:  18    -0.100829842932E+03   -0.37816E-01   -0.14271E-01   896   0.209E+00    0.746E+00
DAV:  19    -0.100710408480E+03    0.11943E+00   -0.25319E-01   904   0.270E+00    0.686E+00
DAV:  20    -0.100399099945E+03    0.31131E+00   -0.43608E-01   912   0.300E+00    0.411E+00
DAV:  21    -0.100322629598E+03    0.76470E-01   -0.12000E-01   944   0.147E+00    0.263E+00
DAV:  22    -0.100311273735E+03    0.11356E-01   -0.28819E-02   928   0.735E-01    0.284E+00
DAV:  23    -0.100313969131E+03   -0.26954E-02   -0.17693E-03   864   0.151E-01    0.283E+00
DAV:  24    -0.100314062770E+03   -0.93639E-04   -0.64073E-05   528   0.282E-02
   1 F= -.10031406E+03 E0= -.10029572E+03  d E =-.100314E+03
       N       E                     dE             d eps       ncg     rms          rms(c)
DAV:   1    -0.988340154445E+02    0.14800E+01   -0.38621E+02   832   0.453E+01    0.598E+00
DAV:   2    -0.999982488157E+02   -0.11642E+01   -0.10682E+01   896   0.922E+00    0.719E+00
DAV:   3    -0.101268691444E+03   -0.12704E+01   -0.62927E+00   912   0.107E+01    0.130E+01
DAV:   4    -0.100654081239E+03    0.61461E+00   -0.49805E+00  1016   0.116E+01    0.115E+01
DAV:   5    -0.100018653862E+03    0.63543E+00   -0.40376E+00  1144   0.915E+00    0.876E+00
DAV:   6    -0.100095325617E+03   -0.76672E-01   -0.35064E-01   936   0.252E+00    0.872E+00
DAV:   7    -0.995956304386E+02    0.49970E+00   -0.15216E+00   976   0.453E+00    0.340E+00
DAV:   8    -0.996962508811E+02   -0.10062E+00   -0.62808E-01   920   0.294E+00    0.580E+00
DAV:   9    -0.996201818434E+02    0.76069E-01   -0.51759E-01   952   0.203E+00    0.312E+00
DAV:  10    -0.995949941874E+02    0.25188E-01   -0.16765E-01   920   0.111E+00    0.296E+00
DAV:  11    -0.995577773780E+02    0.37217E-01   -0.37000E-02   920   0.874E-01    0.182E+00
DAV:  12    -0.995446085380E+02    0.13169E-01   -0.20102E-02   952   0.535E-01    0.129E+00
DAV:  13    -0.995413925762E+02    0.32160E-02   -0.10998E-02   936   0.437E-01    0.985E-01
DAV:  14    -0.995416467565E+02   -0.25418E-03   -0.62715E-03   936   0.409E-01    0.921E-01
DAV:  15    -0.995378865917E+02    0.37602E-02   -0.83144E-03   936   0.289E-01    0.617E-01
DAV:  16    -0.995337738838E+02    0.41127E-02   -0.50578E-03   912   0.394E-01    0.369E-01
DAV:  17    -0.995359142876E+02   -0.21404E-02   -0.95127E-03   960   0.276E-01    0.948E-01
DAV:  18    -0.995352869212E+02    0.62737E-03   -0.48277E-04   632   0.663E-02    0.770E-01
DAV:  19    -0.995332372325E+02    0.20497E-02   -0.76184E-03   672   0.249E-01    0.225E-01
DAV:  20    -0.995330859415E+02    0.15129E-03   -0.30231E-04   608   0.696E-02    0.178E-01
DAV:  21    -0.995330341475E+02    0.51794E-04   -0.36959E-04   488   0.627E-02
   2 F= -.99533034E+02 E0= -.99508506E+02  d E =0.781029E+00
       N       E                     dE             d eps       ncg     rms          rms(c)
DAV:   1    -0.998272293256E+02   -0.29414E+00   -0.31793E+01   832   0.120E+01    0.205E+00
DAV:   2    -0.998679955229E+02   -0.40766E-01   -0.52894E-01   968   0.183E+00    0.205E+00
DAV:   3    -0.999564825539E+02   -0.88487E-01   -0.37297E-01   896   0.258E+00    0.406E+00
DAV:   4    -0.100127202728E+03   -0.17072E+00   -0.13884E+00  1200   0.388E+00    0.722E+00
DAV:   5    -0.998964585571E+02    0.23074E+00   -0.55878E-01  1184   0.374E+00    0.253E+00
DAV:   6    -0.999139155484E+02   -0.17457E-01   -0.30630E-01  1160   0.260E+00    0.343E+00
DAV:   7    -0.998621824756E+02    0.51733E-01   -0.25280E-01  1024   0.174E+00    0.122E+00
DAV:   8    -0.998832220416E+02   -0.21040E-01   -0.56457E-02   944   0.114E+00    0.233E+00
DAV:   9    -0.998547836664E+02    0.28438E-01   -0.48174E-02   968   0.933E-01    0.701E-01
DAV:  10    -0.998520768232E+02    0.27068E-02   -0.21320E-03   968   0.237E-01    0.407E-01
DAV:  11    -0.998519819855E+02    0.94838E-04   -0.96304E-04   904   0.153E-01
   3 F= -.99851982E+02 E0= -.99828534E+02  d E =0.462081E+00
       N       E                     dE             d eps       ncg     rms          rms(c)
DAV:   1    -0.100141559464E+03   -0.28948E+00   -0.34751E+01   832   0.126E+01    0.300E+00
DAV:   2    -0.100198905795E+03   -0.57346E-01   -0.58376E-01   944   0.207E+00    0.322E+00
DAV:   3    -0.101329448751E+03   -0.11305E+01   -0.30488E+00  1240   0.734E+00    0.122E+01
DAV:   4    -0.100729739519E+03    0.59971E+00   -0.79527E+00  1280   0.108E+01    0.811E+00
DAV:   5    -0.100244677352E+03    0.48506E+00   -0.12260E+00  1040   0.370E+00    0.368E+00
DAV:   6    -0.100193138790E+03    0.51539E-01   -0.21511E-01   904   0.200E+00    0.188E+00
DAV:   7    -0.100224199923E+03   -0.31061E-01   -0.24683E-01   888   0.255E+00    0.273E+00
DAV:   8    -0.100179180095E+03    0.45020E-01   -0.20309E-01   880   0.188E+00    0.116E+00
DAV:   9    -0.100178319935E+03    0.86016E-03   -0.33616E-02   952   0.675E-01    0.137E+00
DAV:  10    -0.100176540721E+03    0.17792E-02   -0.56747E-03   896   0.416E-01    0.123E+00
DAV:  11    -0.100172780041E+03    0.37607E-02   -0.70560E-03   928   0.263E-01    0.683E-01
DAV:  12    -0.100170571810E+03    0.22082E-02   -0.57429E-03   944   0.285E-01    0.329E-01
DAV:  13    -0.100170844034E+03   -0.27222E-03   -0.27250E-03   912   0.178E-01    0.416E-01
DAV:  14    -0.100170744124E+03    0.99911E-04   -0.40080E-04   592   0.102E-01
   4 F= -.10017074E+03 E0= -.10014788E+03  d E =0.143319E+00
       N       E                     dE             d eps       ncg     rms          rms(c)
DAV:   1    -0.100236623575E+03   -0.65780E-01   -0.60589E+00   832   0.535E+00    0.890E-01
DAV:   2    -0.100273625606E+03   -0.37002E-01   -0.15787E-01   912   0.144E+00    0.276E+00
DAV:   3    -0.100279080134E+03   -0.54545E-02   -0.24877E-01  1056   0.190E+00    0.316E+00
DAV:   4    -0.100265296914E+03    0.13783E-01   -0.33391E-01  1032   0.176E+00    0.173E+00
DAV:   5    -0.100246244136E+03    0.19053E-01   -0.26745E-02   944   0.771E-01    0.102E+00
DAV:   6    -0.100258723419E+03   -0.12479E-01   -0.38938E-02  1056   0.111E+00    0.190E+00
DAV:   7    -0.100248642160E+03    0.10081E-01   -0.75831E-02  1016   0.110E+00    0.117E+00
DAV:   8    -0.100249595550E+03   -0.95339E-03   -0.66346E-03   904   0.485E-01    0.113E+00
DAV:   9    -0.100241857253E+03    0.77383E-02   -0.18329E-02   968   0.578E-01    0.292E-01
DAV:  10    -0.100241661511E+03    0.19574E-03   -0.86632E-04   920   0.135E-01    0.251E-01
DAV:  11    -0.100241625852E+03    0.35660E-04   -0.52882E-04   568   0.992E-02
   5 F= -.10024163E+03 E0= -.10021867E+03  d E =0.724369E-01
       N       E                     dE             d eps       ncg     rms          rms(c)
DAV:   1    -0.100346661175E+03   -0.10500E+00   -0.80273E+00   832   0.619E+00    0.105E+00
DAV:   2    -0.100537033836E+03   -0.19037E+00   -0.61602E-01   952   0.273E+00    0.590E+00
DAV:   3    -0.100414515241E+03    0.12252E+00   -0.95836E-01  1096   0.355E+00    0.337E+00
DAV:   4    -0.100368713262E+03    0.45802E-01   -0.94875E-02   960   0.130E+00    0.163E+00
DAV:   5    -0.100362647871E+03    0.60654E-02   -0.27350E-02   992   0.934E-01    0.165E+00
DAV:   6    -0.100367186409E+03   -0.45385E-02   -0.27400E-02   904   0.660E-01    0.161E+00
DAV:   7    -0.100381979833E+03   -0.14793E-01   -0.11666E-01  1088   0.156E+00    0.218E+00
DAV:   8    -0.100355493880E+03    0.26486E-01   -0.50909E-02  1008   0.107E+00    0.504E-01
DAV:   9    -0.100354557647E+03    0.93623E-03   -0.14862E-03   928   0.202E-01    0.519E-01
DAV:  10    -0.100354453207E+03    0.10444E-03   -0.27637E-03   720   0.247E-01    0.455E-01
DAV:  11    -0.100354771217E+03   -0.31801E-03   -0.51142E-04   712   0.115E-01    0.506E-01
DAV:  12    -0.100353996922E+03    0.77429E-03   -0.42288E-04   648   0.110E-01    0.349E-01
DAV:  13    -0.100353515312E+03    0.48161E-03   -0.65536E-04   504   0.104E-01    0.242E-01
DAV:  14    -0.100353455885E+03    0.59427E-04   -0.56159E-05   464   0.295E-02
   6 F= -.10035346E+03 E0= -.10033090E+03  d E =-.393931E-01
       N       E                     dE             d eps       ncg     rms          rms(c)
DAV:   1    -0.993745695196E+02    0.97895E+00   -0.14595E+02   832   0.283E+01    0.545E+00
DAV:   2    -0.100723456852E+03   -0.13489E+01   -0.62405E+00   888   0.962E+00    0.118E+01
DAV:   3    -0.102061117071E+03   -0.13377E+01   -0.14949E+01  1048   0.156E+01    0.162E+01
DAV:   4    -0.100112249406E+03    0.19489E+01   -0.19474E+00   944   0.698E+00    0.971E+00
DAV:   5    -0.100618217677E+03   -0.50597E+00   -0.68019E-01   928   0.355E+00    0.130E+01
DAV:   6    -0.101525599512E+03   -0.90738E+00   -0.48401E-01   928   0.372E+00    0.149E+01
DAV:   7    -0.995527014948E+02    0.19729E+01   -0.37298E+00  1064   0.798E+00    0.506E+00
DAV:   8    -0.997727609143E+02   -0.22006E+00   -0.15955E+00   920   0.391E+00    0.744E+00
DAV:   9    -0.997070030789E+02    0.65758E-01   -0.86927E-02   880   0.141E+00    0.647E+00
DAV:  10    -0.995423732005E+02    0.16463E+00   -0.16525E-01   968   0.155E+00    0.390E+00
DAV:  11    -0.995318061177E+02    0.10567E-01   -0.23133E-02   888   0.792E-01    0.413E+00
DAV:  12    -0.995156384810E+02    0.16168E-01   -0.11457E-02   912   0.527E-01    0.347E+00
DAV:  13    -0.994992847130E+02    0.16354E-01   -0.26331E-01   912   0.116E+00    0.359E+00
DAV:  14    -0.994775098636E+02    0.21775E-01   -0.67173E-02   912   0.926E-01    0.244E+00
DAV:  15    -0.994630203238E+02    0.14490E-01   -0.12178E-02   896   0.399E-01    0.198E+00
DAV:  16    -0.994521949390E+02    0.10825E-01   -0.11894E-02   904   0.290E-01    0.135E+00
DAV:  17    -0.994515529884E+02    0.64195E-03   -0.43883E-03   888   0.167E-01    0.158E+00
DAV:  18    -0.994456254118E+02    0.59276E-02   -0.70612E-03   872   0.259E-01    0.107E+00
DAV:  19    -0.994417136182E+02    0.39118E-02   -0.76478E-03   904   0.306E-01    0.779E-01
DAV:  20    -0.994400858902E+02    0.16277E-02   -0.20789E-03   912   0.199E-01    0.577E-01
DAV:  21    -0.994399845350E+02    0.10136E-03   -0.17819E-03   912   0.125E-01    0.560E-01
DAV:  22    -0.994394416251E+02    0.54291E-03   -0.92967E-04   520   0.808E-02    0.397E-01
DAV:  23    -0.994389445987E+02    0.49703E-03   -0.31307E-04   544   0.721E-02    0.279E-01
DAV:  24    -0.994389031499E+02    0.41449E-04   -0.41029E-05   416   0.217E-02
   7 F= -.99438903E+02 E0= -.99410549E+02  d E =0.914553E+00
       N       E                     dE             d eps       ncg     rms          rms(c)
DAV:   1    -0.100322157308E+03   -0.88321E+00   -0.95285E+01   832   0.239E+01    0.521E+00
DAV:   2    -0.101513024556E+03   -0.11909E+01   -0.55673E+00   928   0.915E+00    0.104E+01
DAV:   3    -0.103899234210E+03   -0.23862E+01   -0.10354E+01  1104   0.179E+01    0.178E+01
DAV:   4    -0.100741691734E+03    0.31575E+01   -0.31316E+00  1080   0.108E+01    0.686E+00
DAV:   5    -0.100927339282E+03   -0.18565E+00   -0.11057E+00   960   0.481E+00    0.872E+00
DAV:   6    -0.100968935971E+03   -0.41597E-01   -0.57967E-01   912   0.384E+00    0.832E+00
DAV:   7    -0.100570316102E+03    0.39862E+00   -0.18240E+00  1016   0.491E+00    0.526E+00
DAV:   8    -0.100525505148E+03    0.44811E-01   -0.50531E-01   920   0.197E+00    0.440E+00
DAV:   9    -0.100518083835E+03    0.74213E-02   -0.33756E-01   920   0.319E+00    0.346E+00
DAV:  10    -0.100454055001E+03    0.64029E-01   -0.88427E-02   912   0.143E+00    0.225E+00
DAV:  11    -0.100444775732E+03    0.92793E-02   -0.69150E-03   936   0.356E-01    0.209E+00
DAV:  12    -0.100437080264E+03    0.76955E-02   -0.43008E-03   920   0.293E-01    0.192E+00
DAV:  13    -0.100415472379E+03    0.21608E-01   -0.15503E-02   904   0.831E-01    0.121E+00
DAV:  14    -0.100419625907E+03   -0.41535E-02   -0.32465E-02   896   0.604E-01    0.161E+00
DAV:  15    -0.100417106175E+03    0.25197E-02   -0.27796E-03   864   0.161E-01    0.137E+00
DAV:  16    -0.100410003875E+03    0.71023E-02   -0.85652E-03   816   0.372E-01    0.779E-01
DAV:  17    -0.100407934302E+03    0.20696E-02   -0.22547E-03   920   0.201E-01    0.685E-01
DAV:  18    -0.100406490193E+03    0.14441E-02   -0.35379E-03   888   0.254E-01    0.577E-01
DAV:  19    -0.100406083281E+03    0.40691E-03   -0.63452E-04   712   0.839E-02    0.526E-01
DAV:  20    -0.100405389460E+03    0.69382E-03   -0.10204E-03   840   0.126E-01    0.482E-01
DAV:  21    -0.100404766017E+03    0.62344E-03   -0.59705E-04   760   0.979E-02    0.286E-01
DAV:  22    -0.100404924021E+03   -0.15800E-03   -0.44491E-04   488   0.885E-02    0.440E-01
DAV:  23    -0.100404562597E+03    0.36142E-03   -0.41881E-04   472   0.612E-02    0.239E-01
DAV:  24    -0.100404491646E+03    0.70951E-04   -0.11531E-04   456   0.469E-02
   8 F= -.10040449E+03 E0= -.10037993E+03  d E =-.510358E-01
       N       E                     dE             d eps       ncg     rms          rms(c)
DAV:   1    -0.100433712061E+03   -0.29149E-01   -0.11743E+00   832   0.254E+00    0.104E+00
DAV:   2    -0.100443838038E+03   -0.10126E-01   -0.49998E-02   872   0.798E-01    0.172E+00
DAV:   3    -0.100485574730E+03   -0.41737E-01   -0.26320E-01  1136   0.173E+00    0.362E+00
DAV:   4    -0.100476007040E+03    0.95677E-02   -0.41131E-01  1200   0.221E+00    0.218E+00
DAV:   5    -0.100444804586E+03    0.31202E-01   -0.42495E-02   920   0.861E-01    0.122E+00
DAV:   6    -0.100450073272E+03   -0.52687E-02   -0.64352E-02  1056   0.144E+00    0.148E+00
DAV:   7    -0.100471847878E+03   -0.21775E-01   -0.18707E-01  1192   0.191E+00    0.270E+00
DAV:   8    -0.100437082001E+03    0.34766E-01   -0.72504E-02  1080   0.104E+00    0.554E-01
DAV:   9    -0.100434677211E+03    0.24048E-02   -0.18989E-03   928   0.216E-01    0.355E-01
DAV:  10    -0.100434866228E+03   -0.18902E-03   -0.49964E-04   592   0.890E-02    0.420E-01
DAV:  11    -0.100434664548E+03    0.20168E-03   -0.25511E-04   536   0.105E-01    0.375E-01
DAV:  12    -0.100434327082E+03    0.33747E-03   -0.16054E-04   456   0.490E-02    0.275E-01
DAV:  13    -0.100434108118E+03    0.21896E-03   -0.26562E-04   472   0.751E-02    0.190E-01
DAV:  14    -0.100434067278E+03    0.40840E-04   -0.66677E-05   432   0.329E-02
   9 F= -.10043407E+03 E0= -.10041061E+03  d E =-.806114E-01
       N       E                     dE             d eps       ncg     rms          rms(c)
DAV:   1    -0.996795599130E+02    0.75455E+00   -0.64105E+01   832   0.172E+01    0.215E+00
DAV:   2    -0.997509460600E+02   -0.71386E-01   -0.12281E+00   872   0.290E+00    0.234E+00
DAV:   3    -0.997757123094E+02   -0.24766E-01   -0.18435E-01   904   0.166E+00    0.428E+00
DAV:   4    -0.997684304057E+02    0.72819E-02   -0.29891E-01   920   0.129E+00    0.321E+00
DAV:   5    -0.999017194530E+02   -0.13329E+00   -0.10008E+00  1224   0.307E+00    0.617E+00
DAV:   6    -0.998756416477E+02    0.26078E-01   -0.11083E+00  1144   0.442E+00    0.464E+00
DAV:   7    -0.997416357528E+02    0.13401E+00   -0.58930E-01  1160   0.330E+00    0.261E+00
DAV:   8    -0.997184558616E+02    0.23180E-01   -0.94204E-02   880   0.127E+00    0.136E+00
DAV:   9    -0.997171966454E+02    0.12592E-02   -0.52956E-02   896   0.871E-01    0.120E+00
DAV:  10    -0.997126786106E+02    0.45180E-02   -0.15821E-02   880   0.438E-01    0.760E-01
DAV:  11    -0.997101988856E+02    0.24797E-02   -0.45622E-03   880   0.288E-01    0.494E-01
DAV:  12    -0.997104095086E+02   -0.21062E-03   -0.58917E-03   872   0.288E-01    0.542E-01
DAV:  13    -0.997093489979E+02    0.10605E-02   -0.32901E-03   888   0.229E-01    0.340E-01
DAV:  14    -0.997092465484E+02    0.10245E-03   -0.53260E-04   624   0.980E-02    0.344E-01
DAV:  15    -0.997089462967E+02    0.30025E-03   -0.38503E-04   464   0.672E-02    0.179E-01
DAV:  16    -0.997088583277E+02    0.87969E-04   -0.24571E-04   576   0.691E-02
  10 F= -.99708858E+02 E0= -.99682935E+02  d E =0.725209E+00
       N       E                     dE             d eps       ncg     rms          rms(c)
DAV:   1    -0.100267920647E+03   -0.55897E+00   -0.25068E+01   832   0.126E+01    0.128E+00
DAV:   2    -0.100368109860E+03   -0.10019E+00   -0.76592E-01   872   0.256E+00    0.389E+00
DAV:   3    -0.100336065073E+03    0.32045E-01   -0.25317E-01   944   0.202E+00    0.250E+00
DAV:   4    -0.100317841959E+03    0.18223E-01   -0.10234E-01   928   0.967E-01    0.176E+00
DAV:   5    -0.100313855157E+03    0.39868E-02   -0.35339E-03   888   0.293E-01    0.162E+00
DAV:   6    -0.100310987427E+03    0.28677E-02   -0.86619E-03   904   0.563E-01    0.138E+00
DAV:   7    -0.100346734514E+03   -0.35747E-01   -0.11613E-01  1008   0.173E+00    0.297E+00
DAV:   8    -0.100360912676E+03   -0.14178E-01   -0.27907E-01  1048   0.267E+00    0.397E+00
DAV:   9    -0.100312211619E+03    0.48701E-01   -0.93574E-02   976   0.114E+00    0.161E+00
DAV:  10    -0.100301696908E+03    0.10515E-01   -0.13529E-02   896   0.456E-01    0.795E-01
DAV:  11    -0.100303514344E+03   -0.18174E-02   -0.28310E-02   976   0.633E-01    0.105E+00
DAV:  12    -0.100298806804E+03    0.47075E-02   -0.16562E-02   960   0.512E-01    0.345E-01
DAV:  13    -0.100299110641E+03   -0.30384E-03   -0.19497E-03   904   0.175E-01    0.551E-01
DAV:  14    -0.100298081513E+03    0.10291E-02   -0.17969E-03   656   0.157E-01    0.144E-01
DAV:  15    -0.100298049673E+03    0.31840E-04   -0.57504E-04   520   0.962E-02
  11 F= -.10029805E+03 E0= -.10027320E+03  d E =0.136018E+00
       N       E                     dE             d eps       ncg     rms          rms(c)
DAV:   1    -0.100419018085E+03   -0.12094E+00   -0.46883E+00   832   0.496E+00    0.573E-01
DAV:   2    -0.100473470931E+03   -0.54453E-01   -0.24624E-01   872   0.155E+00    0.364E+00
DAV:   3    -0.100428099318E+03    0.45372E-01   -0.15937E-01   904   0.119E+00    0.676E-01
DAV:   4    -0.100425119655E+03    0.29797E-02   -0.47963E-03   984   0.321E-01    0.845E-01
DAV:   5    -0.100426488276E+03   -0.13686E-02   -0.29971E-03   872   0.322E-01    0.916E-01
DAV:   6    -0.100441801267E+03   -0.15313E-01   -0.67944E-02  1160   0.114E+00    0.225E+00
DAV:   7    -0.100459208199E+03   -0.17407E-01   -0.30442E-02   952   0.573E-01    0.283E+00
DAV:   8    -0.100427618581E+03    0.31590E-01   -0.14493E-01  1176   0.152E+00    0.970E-01
DAV:   9    -0.100423257565E+03    0.43610E-02   -0.62577E-03   864   0.308E-01    0.579E-01
DAV:  10    -0.100424308353E+03   -0.10508E-02   -0.15044E-03   728   0.163E-01    0.753E-01
DAV:  11    -0.100422580109E+03    0.17282E-02   -0.16239E-03   504   0.161E-01    0.455E-01
DAV:  12    -0.100422078521E+03    0.50159E-03   -0.35932E-04   552   0.894E-02    0.331E-01
DAV:  13    -0.100421806297E+03    0.27222E-03   -0.43862E-04   488   0.790E-02    0.215E-01
DAV:  14    -0.100421744756E+03    0.61541E-04   -0.78856E-05   432   0.330E-02
  12 F= -.10042174E+03 E0= -.10039803E+03  d E =0.123225E-01
       N       E                     dE             d eps       ncg     rms          rms(c)
DAV:   1    -0.100436137484E+03   -0.14331E-01   -0.16610E-01   832   0.896E-01    0.214E-01
DAV:   2    -0.100471100706E+03   -0.34963E-01   -0.10845E-01  1152   0.102E+00    0.324E+00
DAV:   3    -0.100448104057E+03    0.22997E-01   -0.21554E-01  1168   0.137E+00    0.154E+00
DAV:   4    -0.100437252321E+03    0.10852E-01   -0.15322E-02   952   0.412E-01    0.406E-01
DAV:   5    -0.100437345074E+03   -0.92753E-04   -0.64500E-04   720   0.122E-01
  13 F= -.10043735E+03 E0= -.10041374E+03  d E =-.327780E-02
       N       E                     dE             d eps       ncg     rms          rms(c)
DAV:   1    -0.100439489276E+03   -0.22370E-02   -0.51949E-02   832   0.544E-01    0.310E-01
DAV:   2    -0.100539041641E+03   -0.99552E-01   -0.30799E-01  1200   0.167E+00    0.494E+00
DAV:   3    -0.100466573361E+03    0.72468E-01   -0.54824E-01  1264   0.223E+00    0.217E+00
DAV:   4    -0.100440650068E+03    0.25923E-01   -0.37041E-02   992   0.682E-01    0.364E-01
DAV:   5    -0.100439539256E+03    0.11108E-02   -0.16420E-03   888   0.245E-01    0.317E-01
DAV:   6    -0.100439929775E+03   -0.39052E-03   -0.15430E-03   776   0.217E-01    0.445E-01
DAV:   7    -0.100439598615E+03    0.33116E-03   -0.19282E-04   584   0.585E-02    0.353E-01
DAV:   8    -0.100439747939E+03   -0.14932E-03   -0.13264E-04   448   0.477E-02    0.396E-01
DAV:   9    -0.100439312811E+03    0.43513E-03   -0.28677E-04   464   0.751E-02    0.249E-01
DAV:  10    -0.100439194566E+03    0.11824E-03   -0.54298E-05   464   0.320E-02    0.182E-01
DAV:  11    -0.100439091626E+03    0.10294E-03   -0.10702E-04   464   0.459E-02    0.101E-01
DAV:  12    -0.100439106666E+03   -0.15041E-04   -0.14704E-05   416   0.137E-02
  14 F= -.10043911E+03 E0= -.10041531E+03  d E =-.503939E-02
       N       E                     dE             d eps       ncg     rms          rms(c)
DAV:   1    -0.100408995837E+03    0.30096E-01   -0.71806E+00   832   0.656E+00    0.565E-01
DAV:   2    -0.100491920065E+03   -0.82924E-01   -0.34058E-01   880   0.188E+00    0.445E+00
DAV:   3    -0.100424204070E+03    0.67716E-01   -0.19721E-01   928   0.136E+00    0.491E-01
DAV:   4    -0.100428710563E+03   -0.45065E-02   -0.14760E-02   904   0.550E-01    0.186E+00
DAV:   5    -0.100427560594E+03    0.11500E-02   -0.85730E-03   912   0.494E-01    0.154E+00
DAV:   6    -0.100429848639E+03   -0.22880E-02   -0.77173E-02  1160   0.110E+00    0.149E+00
DAV:   7    -0.100420177271E+03    0.96714E-02   -0.33442E-02   968   0.554E-01    0.470E-01
DAV:   8    -0.100423793669E+03   -0.36164E-02   -0.10249E-02   960   0.570E-01    0.114E+00
DAV:   9    -0.100419492329E+03    0.43013E-02   -0.61743E-03   896   0.297E-01    0.380E-01
DAV:  10    -0.100418809222E+03    0.68311E-03   -0.17524E-03   688   0.188E-01    0.183E-01
DAV:  11    -0.100418753732E+03    0.55490E-04   -0.19524E-04   488   0.542E-02
  15 F= -.10041875E+03 E0= -.10039406E+03  d E =0.203529E-01
       N       E                     dE             d eps       ncg     rms          rms(c)
DAV:   1    -0.100440856422E+03   -0.22047E-01   -0.29285E+00   832   0.419E+00    0.413E-01
DAV:   2    -0.100544244693E+03   -0.10339E+00   -0.29589E-01  1000   0.209E+00    0.446E+00
DAV:   3    -0.100452416891E+03    0.91828E-01   -0.28435E-01   992   0.181E+00    0.955E-01
DAV:   4    -0.100445389537E+03    0.70274E-02   -0.13160E-02   944   0.493E-01    0.372E-01
DAV:   5    -0.100447876768E+03   -0.24872E-02   -0.14966E-02   944   0.465E-01    0.864E-01
DAV:   6    -0.100446695624E+03    0.11811E-02   -0.19372E-03   936   0.179E-01    0.679E-01
DAV:   7    -0.100447533917E+03   -0.83829E-03   -0.21712E-03   872   0.235E-01    0.789E-01
DAV:   8    -0.100447935623E+03   -0.40171E-03   -0.25644E-02  1008   0.663E-01    0.936E-01
DAV:   9    -0.100445190054E+03    0.27456E-02   -0.31873E-03   872   0.246E-01    0.407E-01
DAV:  10    -0.100445185964E+03    0.40901E-05   -0.26690E-04   528   0.859E-02
  16 F= -.10044519E+03 E0= -.10042076E+03  d E =-.607930E-02
       N       E                     dE             d eps       ncg     rms          rms(c)
DAV:   1    -0.100445561038E+03   -0.37098E-03   -0.11777E+00   832   0.273E+00    0.175E-01
DAV:   2    -0.100455216291E+03   -0.96553E-02   -0.45228E-02   872   0.664E-01    0.161E+00
DAV:   3    -0.100447710752E+03    0.75055E-02   -0.23444E-02   920   0.465E-01    0.161E-01
DAV:   4    -0.100450376559E+03   -0.26658E-02   -0.73340E-03   824   0.309E-01    0.977E-01
DAV:   5    -0.100447515713E+03    0.28608E-02   -0.57197E-03   696   0.302E-01    0.292E-01
DAV:   6    -0.100447288907E+03    0.22681E-03   -0.46815E-04   648   0.133E-01    0.293E-01
DAV:   7    -0.100447091676E+03    0.19723E-03   -0.92516E-04   808   0.108E-01    0.112E-01
DAV:   8    -0.100447162095E+03   -0.70420E-04   -0.43356E-04   528   0.699E-02
  17 F= -.10044716E+03 E0= -.10042278E+03  d E =-.197613E-02
       N       E                     dE             d eps       ncg     rms          rms(c)
DAV:   1    -0.100453662521E+03   -0.65708E-02   -0.12309E+00   832   0.279E+00    0.372E-01
DAV:   2    -0.100727821857E+03   -0.27416E+00   -0.68223E-01  1232   0.324E+00    0.659E+00
DAV:   3    -0.100467180563E+03    0.26064E+00   -0.83535E-01  1192   0.303E+00    0.790E-01
DAV:   4    -0.100461934973E+03    0.52456E-02   -0.23649E-02   928   0.666E-01    0.149E+00
DAV:   5    -0.100464627520E+03   -0.26925E-02   -0.24283E-03   912   0.196E-01    0.159E+00
DAV:   6    -0.100461165791E+03    0.34617E-02   -0.13943E-03   544   0.128E-01    0.124E+00
DAV:   7    -0.100455629300E+03    0.55365E-02   -0.21359E-02   920   0.450E-01    0.313E-01
DAV:   8    -0.100455556013E+03    0.73287E-04   -0.11972E-03   920   0.179E-01    0.338E-01
DAV:   9    -0.100455148288E+03    0.40773E-03   -0.64626E-04   616   0.148E-01    0.171E-01
DAV:  10    -0.100455090088E+03    0.58200E-04   -0.22311E-04   520   0.634E-02
  18 F= -.10045509E+03 E0= -.10043077E+03  d E =-.990412E-02
       N       E                     dE             d eps       ncg     rms          rms(c)
DAV:   1    -0.100430533281E+03    0.24615E-01   -0.49057E+00   832   0.558E+00    0.418E-01
DAV:   2    -0.100512969813E+03   -0.82437E-01   -0.27421E-01   896   0.198E+00    0.388E+00
DAV:   3    -0.100441205579E+03    0.71764E-01   -0.19664E-01   928   0.156E+00    0.546E-01
DAV:   4    -0.100450878794E+03   -0.96732E-02   -0.29904E-02   944   0.857E-01    0.187E+00
DAV:   5    -0.100449388280E+03    0.14905E-02   -0.28167E-03   880   0.175E-01    0.166E+00
DAV:   6    -0.100444156496E+03    0.52318E-02   -0.94816E-03   880   0.441E-01    0.150E+00
DAV:   7    -0.100439225529E+03    0.49310E-02   -0.61338E-03   928   0.222E-01    0.741E-01
DAV:   8    -0.100438540002E+03    0.68553E-03   -0.92855E-03   888   0.402E-01    0.540E-01
DAV:   9    -0.100438446286E+03    0.93716E-04   -0.84689E-03   936   0.365E-01    0.717E-01
DAV:  10    -0.100437461222E+03    0.98506E-03   -0.24324E-03   896   0.171E-01    0.306E-01
DAV:  11    -0.100437478487E+03   -0.17265E-04   -0.26313E-04   560   0.775E-02
  19 F= -.10043748E+03 E0= -.10041203E+03  d E =0.770748E-02
       N       E                     dE             d eps       ncg     rms          rms(c)
DAV:   1    -0.100451095077E+03   -0.13634E-01   -0.34666E+00   832   0.470E+00    0.425E-01
DAV:   2    -0.100685154426E+03   -0.23406E+00   -0.63587E-01  1032   0.309E+00    0.626E+00
DAV:   3    -0.100468645068E+03    0.21651E+00   -0.74979E-01  1008   0.287E+00    0.110E+00
DAV:   4    -0.100458998853E+03    0.96462E-02   -0.18496E-02   936   0.573E-01    0.807E-01
DAV:   5    -0.100456317334E+03    0.26815E-02   -0.10602E-02   920   0.349E-01    0.426E-01
DAV:   6    -0.100460031299E+03   -0.37140E-02   -0.83855E-03   888   0.379E-01    0.990E-01
DAV:   7    -0.100458352623E+03    0.16787E-02   -0.12762E-03   872   0.134E-01    0.749E-01
DAV:   8    -0.100457155878E+03    0.11967E-02   -0.16359E-02   904   0.463E-01    0.670E-01
DAV:   9    -0.100455528959E+03    0.16269E-02   -0.36893E-03   912   0.255E-01    0.182E-01
DAV:  10    -0.100455934914E+03   -0.40596E-03   -0.10276E-03   688   0.174E-01    0.334E-01
DAV:  11    -0.100455537854E+03    0.39706E-03   -0.17089E-03   624   0.211E-01    0.117E-01
DAV:  12    -0.100455532041E+03    0.58124E-05   -0.51563E-04   480   0.102E-01
  20 F= -.10045553E+03 E0= -.10043090E+03  d E =-.103461E-01
       N       E                     dE             d eps       ncg     rms          rms(c)
DAV:   1    -0.100457055629E+03   -0.15178E-02   -0.82617E-02   832   0.725E-01    0.944E-02
DAV:   2    -0.100462939208E+03   -0.58836E-02   -0.14680E-02   976   0.470E-01    0.122E+00
DAV:   3    -0.100460192534E+03    0.27467E-02   -0.36140E-02  1016   0.626E-01    0.941E-01
DAV:   4    -0.100457610866E+03    0.25817E-02   -0.46255E-03   744   0.181E-01    0.253E-01
DAV:   5    -0.100457171840E+03    0.43903E-03   -0.24712E-04   512   0.822E-02    0.129E-01
DAV:   6    -0.100457193338E+03   -0.21498E-04   -0.48405E-05   440   0.302E-02
  21 F= -.10045719E+03 E0= -.10043244E+03  d E =-.166130E-02
       N       E                     dE             d eps       ncg     rms          rms(c)
DAV:   1    -0.100460371055E+03   -0.31992E-02   -0.58273E-01   832   0.192E+00    0.211E-01
DAV:   2    -0.100516739678E+03   -0.56369E-01   -0.15626E-01  1088   0.142E+00    0.339E+00
DAV:   3    -0.100465254537E+03    0.51485E-01   -0.18969E-01  1104   0.141E+00    0.718E-01
DAV:   4    -0.100462927357E+03    0.23272E-02   -0.51520E-03   928   0.345E-01    0.750E-01
DAV:   5    -0.100462943101E+03   -0.15744E-04   -0.49175E-04   816   0.791E-02
  22 F= -.10046294E+03 E0= -.10043801E+03  d E =-.741106E-02
       N       E                     dE             d eps       ncg     rms          rms(c)
DAV:   1    -0.100441416783E+03    0.21511E-01   -0.23321E+00   832   0.385E+00    0.742E-01
DAV:   2    -0.101775943617E+03   -0.13345E+01   -0.27331E+00  1272   0.731E+00    0.130E+01
DAV:   3    -0.100471115150E+03    0.13048E+01   -0.26310E+00  1288   0.681E+00    0.103E+00
DAV:   4    -0.100451872459E+03    0.19243E-01   -0.75392E-02   928   0.115E+00    0.168E+00
DAV:   5    -0.100444964767E+03    0.69077E-02   -0.18114E-02   912   0.426E-01    0.472E-01
DAV:   6    -0.100443436780E+03    0.15280E-02   -0.56832E-03   920   0.421E-01    0.494E-01
DAV:   7    -0.100444711922E+03   -0.12751E-02   -0.13507E-03   920   0.173E-01    0.679E-01
DAV:   8    -0.100443263055E+03    0.14489E-02   -0.23042E-03   776   0.213E-01    0.379E-01
DAV:   9    -0.100443298270E+03   -0.35216E-04   -0.50403E-03   840   0.265E-01    0.467E-01
DAV:  10    -0.100442998711E+03    0.29956E-03   -0.45329E-04   608   0.656E-02    0.335E-01
DAV:  11    -0.100443028555E+03   -0.29844E-04   -0.36392E-03   608   0.244E-01    0.350E-01
DAV:  12    -0.100442661750E+03    0.36681E-03   -0.11391E-03   512   0.102E-01    0.962E-02
DAV:  13    -0.100442624055E+03    0.37695E-04   -0.48245E-05   432   0.297E-02
  23 F= -.10044262E+03 E0= -.10041778E+03  d E =0.129080E-01
       N       E                     dE             d eps       ncg     rms          rms(c)
DAV:   1    -0.100459998395E+03   -0.17337E-01   -0.16588E+00   832   0.326E+00    0.300E-01
DAV:   2    -0.100502217839E+03   -0.42219E-01   -0.17015E-01   928   0.116E+00    0.338E+00
DAV:   3    -0.100486220624E+03    0.15997E-01   -0.33033E-01  1048   0.176E+00    0.212E+00
DAV:   4    -0.100468555551E+03    0.17665E-01   -0.21756E-02   920   0.485E-01    0.102E+00
DAV:   5    -0.100463399257E+03    0.51563E-02   -0.14373E-02   848   0.531E-01    0.464E-01
DAV:   6    -0.100464322143E+03   -0.92289E-03   -0.77397E-03   936   0.378E-01    0.708E-01
DAV:   7    -0.100466339700E+03   -0.20176E-02   -0.11687E-03   720   0.140E-01    0.956E-01
DAV:   8    -0.100462852626E+03    0.34871E-02   -0.42050E-03   824   0.241E-01    0.330E-01
DAV:   9    -0.100462293376E+03    0.55925E-03   -0.78903E-04   624   0.134E-01    0.136E-01
DAV:  10    -0.100462312378E+03   -0.19002E-04   -0.95853E-05   440   0.366E-02
  24 F= -.10046231E+03 E0= -.10043780E+03  d E =-.678034E-02
       N       E                     dE             d eps       ncg     rms          rms(c)
DAV:   1    -0.100466841860E+03   -0.45485E-02   -0.14075E-02   832   0.259E-01    0.134E-01
DAV:   2    -0.100475437698E+03   -0.85958E-02   -0.27166E-02   944   0.492E-01    0.166E+00
DAV:   3    -0.100474566784E+03    0.87091E-03   -0.75812E-02  1128   0.801E-01    0.135E+00
DAV:   4    -0.100467217804E+03    0.73490E-02   -0.13736E-02   920   0.387E-01    0.189E-01
DAV:   5    -0.100466837386E+03    0.38042E-03   -0.25989E-04   576   0.854E-02    0.130E-01
DAV:   6    -0.100466915755E+03   -0.78369E-04   -0.15379E-04   464   0.683E-02
  25 F= -.10046692E+03 E0= -.10044233E+03  d E =-.460338E-02
       N       E                     dE             d eps       ncg     rms          rms(c)
DAV:   1    -0.100473895053E+03   -0.70577E-02   -0.12602E-01   832   0.771E-01    0.204E-01
DAV:   2    -0.100549040792E+03   -0.75146E-01   -0.24764E-01  1240   0.147E+00    0.434E+00
DAV:   3    -0.100480423082E+03    0.68618E-01   -0.28346E-01  1256   0.155E+00    0.690E-01
DAV:   4    -0.100474183536E+03    0.62395E-02   -0.49899E-03   912   0.262E-01    0.240E-01
DAV:   5    -0.100474135602E+03    0.47934E-04   -0.62249E-04   624   0.811E-02
  26 F= -.10047414E+03 E0= -.10044955E+03  d E =-.118232E-01
       N       E                     dE             d eps       ncg     rms          rms(c)
DAV:   1    -0.100475727268E+03   -0.15437E-02   -0.34696E-03   824   0.250E-01    0.539E-01
DAV:   2    -0.101380324894E+03   -0.90460E+00   -0.21920E+00  1272   0.599E+00    0.107E+01
DAV:   3    -0.100489378204E+03    0.89095E+00   -0.18348E+00  1296   0.564E+00    0.581E-01
DAV:   4    -0.100475647380E+03    0.13731E-01   -0.25436E-02   928   0.586E-01    0.527E-01
DAV:   5    -0.100474515132E+03    0.11322E-02   -0.32075E-03   888   0.219E-01    0.203E-01
DAV:   6    -0.100474575904E+03   -0.60772E-04   -0.67197E-04   696   0.127E-01
  27 F= -.10047458E+03 E0= -.10044991E+03  d E =-.440302E-03
       N       E                     dE             d eps       ncg     rms          rms(c)
DAV:   1    -0.100474897987E+03   -0.38286E-03   -0.18143E-02   832   0.315E-01    0.104E-01
DAV:   2    -0.100484007315E+03   -0.91093E-02   -0.21401E-02  1016   0.641E-01    0.143E+00
DAV:   3    -0.100476403858E+03    0.76035E-02   -0.13345E-02   872   0.349E-01    0.333E-01
DAV:   4    -0.100475023428E+03    0.13804E-02   -0.28380E-03   776   0.323E-01    0.257E-01
DAV:   5    -0.100475053970E+03   -0.30542E-04   -0.63201E-04   712   0.118E-01
  28 F= -.10047505E+03 E0= -.10045053E+03  d E =-.918368E-03
