 vasp.6.2.0 18Jan21 (build Feb  1 2022 01:28:57) complex                         
 executed on             LinuxPGI date 2022.05.17  23:23:00
 running on   16 total cores
 distrk:  each k-point on   16 cores,    1 groups
 distr:  one band on NCORE=   4 cores,    4 groups


--------------------------------------------------------------------------------------------------------


 INCAR:
   ALGO = 38
   AMIN = 0.01
   AMIX = 0.2
   BMIX = 0.001
   EDIFF = 0.0001
   EDIFFG = 0.001
   ENCUT = 420
   GGA = RP
   IBRION = 2
   ISIF = 0
   ISMEAR = 0
   ISPIN = 1
   ISYM = 0
   LASPH = False
   LORBIT = 11
   LREAL = True
   LVTOT = False
   LWAVE = False
   NCORE = 4
   NELM = 60
   NELMIN = 4
   NSW = 300
   PREC = Normal
   SIGMA = 0.05
   SYMPREC = 1e-05

 POTCAR:    PAW_PBE Pt 04Feb2005                  
 POTCAR:    PAW_PBE C 08Apr2002                   
 POTCAR:    PAW_PBE O 08Apr2002                   
 POTCAR:    PAW_PBE Pt 04Feb2005                  
   SHA256 =  3ed90460adef76debcff1cfb73ee1349b515b1a3db03439735b44de3a8db7dc8 Pt/POTCAR             
   COPYR  = (c) Copyright 04Feb2005 Georg Kresse                                                    
   COPYR  = This file is part of the software VASP. Any use, copying, and all other rights are regul
   COPYR  = If you do not have a valid VASP license, you may not use, copy or distribute this file. 
   VRHFIN =Pt: s1d9                                                                                 
   LEXCH  = PE                                                                                      
   EATOM  =   729.1176 eV,   53.5886 Ry                                                             
                                                                                                    
   TITEL  = PAW_PBE Pt 04Feb2005                                                                    
   LULTRA =        F    use ultrasoft PP ?                                                          
   IUNSCR =        1    unscreen: 0-lin 1-nonlin 2-no                                               
   RPACOR =    2.330    partial core radius                                                         
   POMASS =  195.080; ZVAL   =   10.000    mass and valenz                                          
   RCORE  =    2.600    outmost cutoff radius                                                       
   RWIGS  =    2.750; RWIGS  =    1.455    wigner-seitz radius (au A)                               
   ENMAX  =  230.283; ENMIN  =  172.712 eV                                                          
   ICORE  =        3    local potential                                                             
   LCOR   =        T    correct aug charges                                                         
   LPAW   =        T    paw PP                                                                      
   EAUG   =  358.966                                                                                
   DEXC   =    0.000                                                                                
   RMAX   =    2.658    core radius for proj-oper                                                   
   RAUG   =    1.300    factor for augmentation sphere                                              
   RDEP   =    2.761    radius for radial grids                                                     
   RDEPT  =    2.203    core radius for aug-charge                                                  
                                                                                                    
   Atomic configuration                                                                             
   16 entries                                                                                       
     n  l   j            E        occ.                                                              
     1  0  0.50    -78401.1885   2.0000                                                             
     2  0  0.50    -13770.7750   2.0000                                                             
     2  1  1.50    -11931.0468   6.0000                                                             
     3  0  0.50     -3234.7234   2.0000                                                             
     3  1  1.50     -2699.2216   6.0000                                                             
     3  2  2.50     -2119.5714  10.0000                                                             
     4  0  0.50      -695.1528   2.0000                                                             
     4  1  1.50      -519.6034   6.0000                                                             
     4  2  2.50      -306.6786  10.0000                                                             
     4  3  3.50       -70.1041  14.0000                                                             
     5  0  0.50      -101.7747   2.0000                                                             
     5  1  1.50       -55.9873   6.0000                                                             
     5  2  2.50        -6.1423   9.0000                                                             
     6  0  0.50        -5.6573   1.0000                                                             
     6  1  1.50        -6.8029   0.0000                                                             
     5  3  2.50        -1.3606   0.0000                                                             
   Description                                                                                      
     l       E           TYP  RCUT    TYP  RCUT                                                     
     2     -6.1423404     23  2.500                                                                 
     2     -7.5029230     23  2.500                                                                 
     0     -5.6573207     23  2.500                                                                 
     0      0.7416693     23  2.500                                                                 
     1     -2.7211652     23  2.600                                                                 
     1     20.4087390     23  2.600                                                                 
     3     -1.3605826     23  2.500                                                                 
  local pseudopotential read in
  partial core-charges read in
  partial kinetic energy density read in
  atomic valenz-charges read in
  non local Contribution for L=            2  read in
    real space projection operators read in
  non local Contribution for L=            2  read in
    real space projection operators read in
  non local Contribution for L=            0  read in
    real space projection operators read in
  non local Contribution for L=            0  read in
    real space projection operators read in
  non local Contribution for L=            1  read in
    real space projection operators read in
  non local Contribution for L=            1  read in
    real space projection operators read in
    PAW grid and wavefunctions read in
 
   number of l-projection  operators is LMAX  =            6
   number of lm-projection operators is LMMAX =           18
 
 POTCAR:    PAW_PBE C 08Apr2002                   
   SHA256 =  253f7b50bb8d59471dbedb8285d89021f4a42ed1a2c5d38a03a736e69125dd95 C/POTCAR              
   COPYR  = (c) Copyright 08Apr2002 Georg Kresse                                                    
   COPYR  = This file is part of the software VASP. Any use, copying, and all other rights are regul
   COPYR  = If you do not have a valid VASP license, you may not use, copy or distribute this file. 
   VRHFIN =C: s2p2                                                                                  
   LEXCH  = PE                                                                                      
   EATOM  =   147.1560 eV,   10.8157 Ry                                                             
                                                                                                    
   TITEL  = PAW_PBE C 08Apr2002                                                                     
   LULTRA =        F    use ultrasoft PP ?                                                          
   IUNSCR =        1    unscreen: 0-lin 1-nonlin 2-no                                               
   RPACOR =    1.200    partial core radius                                                         
   POMASS =   12.011; ZVAL   =    4.000    mass and valenz                                          
   RCORE  =    1.500    outmost cutoff radius                                                       
   RWIGS  =    1.630; RWIGS  =    0.863    wigner-seitz radius (au A)                               
   ENMAX  =  400.000; ENMIN  =  300.000 eV                                                          
   ICORE  =        2    local potential                                                             
   LCOR   =        T    correct aug charges                                                         
   LPAW   =        T    paw PP                                                                      
   EAUG   =  644.873                                                                                
   DEXC   =    0.000                                                                                
   RMAX   =    1.529    core radius for proj-oper                                                   
   RAUG   =    1.300    factor for augmentation sphere                                              
   RDEP   =    1.501    radius for radial grids                                                     
   RDEPT  =    1.300    core radius for aug-charge                                                  
                                                                                                    
   Atomic configuration                                                                             
    4 entries                                                                                       
     n  l   j            E        occ.                                                              
     1  0  0.50      -273.3789   2.0000                                                             
     2  0  0.50       -13.7508   2.0000                                                             
     2  1  0.50        -5.2854   2.0000                                                             
     3  2  1.50        -5.4423   0.0000                                                             
   Description                                                                                      
     l       E           TYP  RCUT    TYP  RCUT                                                     
     0    -13.7508458     23  1.200                                                                 
     0     -8.2022199     23  1.200                                                                 
     1     -5.2854383     23  1.500                                                                 
     1     34.0145650     23  1.500                                                                 
     2     -5.4423304      7  1.500                                                                 
  local pseudopotential read in
  partial core-charges read in
  partial kinetic energy density read in
  atomic valenz-charges read in
  non local Contribution for L=            0  read in
    real space projection operators read in
  non local Contribution for L=            0  read in
    real space projection operators read in
  non local Contribution for L=            1  read in
    real space projection operators read in
  non local Contribution for L=            1  read in
    real space projection operators read in
    PAW grid and wavefunctions read in
 
   number of l-projection  operators is LMAX  =            4
   number of lm-projection operators is LMMAX =            8
 
 POTCAR:    PAW_PBE O 08Apr2002                   
   SHA256 =  818f92134a0a090dccd8ba1447fa70422a3b330e708bb4f08108d8ae51209ddf O/POTCAR              
   COPYR  = (c) Copyright 08Apr2002 Georg Kresse                                                    
   COPYR  = This file is part of the software VASP. Any use, copying, and all other rights are regul
   COPYR  = If you do not have a valid VASP license, you may not use, copy or distribute this file. 
   VRHFIN =O: s2p4                                                                                  
   LEXCH  = PE                                                                                      
   EATOM  =   432.3788 eV,   31.7789 Ry                                                             
                                                                                                    
   TITEL  = PAW_PBE O 08Apr2002                                                                     
   LULTRA =        F    use ultrasoft PP ?                                                          
   IUNSCR =        1    unscreen: 0-lin 1-nonlin 2-no                                               
   RPACOR =    1.200    partial core radius                                                         
   POMASS =   16.000; ZVAL   =    6.000    mass and valenz                                          
   RCORE  =    1.520    outmost cutoff radius                                                       
   RWIGS  =    1.550; RWIGS  =    0.820    wigner-seitz radius (au A)                               
   ENMAX  =  400.000; ENMIN  =  300.000 eV                                                          
   ICORE  =        2    local potential                                                             
   LCOR   =        T    correct aug charges                                                         
   LPAW   =        T    paw PP                                                                      
   EAUG   =  605.392                                                                                
   DEXC   =    0.000                                                                                
   RMAX   =    1.553    core radius for proj-oper                                                   
   RAUG   =    1.300    factor for augmentation sphere                                              
   RDEP   =    1.550    radius for radial grids                                                     
   RDEPT  =    1.329    core radius for aug-charge                                                  
                                                                                                    
   Atomic configuration                                                                             
    4 entries                                                                                       
     n  l   j            E        occ.                                                              
     1  0  0.50      -514.6923   2.0000                                                             
     2  0  0.50       -23.9615   2.0000                                                             
     2  1  0.50        -9.0305   4.0000                                                             
     3  2  1.50        -9.5241   0.0000                                                             
   Description                                                                                      
     l       E           TYP  RCUT    TYP  RCUT                                                     
     0    -23.9615318     23  1.200                                                                 
     0     -9.5240782     23  1.200                                                                 
     1     -9.0304911     23  1.520                                                                 
     1      8.1634956     23  1.520                                                                 
     2     -9.5240782      7  1.500                                                                 
  local pseudopotential read in
  partial core-charges read in
  partial kinetic energy density read in
  kinetic energy density of atom read in
  atomic valenz-charges read in
  non local Contribution for L=            0  read in
    real space projection operators read in
  non local Contribution for L=            0  read in
    real space projection operators read in
  non local Contribution for L=            1  read in
    real space projection operators read in
  non local Contribution for L=            1  read in
    real space projection operators read in
    PAW grid and wavefunctions read in
 
   number of l-projection  operators is LMAX  =            4
   number of lm-projection operators is LMMAX =            8
 
 -----------------------------------------------------------------------------
|                                                                             |
|           W    W    AA    RRRRR   N    N  II  N    N   GGGG   !!!           |
|           W    W   A  A   R    R  NN   N  II  NN   N  G    G  !!!           |
|           W    W  A    A  R    R  N N  N  II  N N  N  G       !!!           |
|           W WW W  AAAAAA  RRRRR   N  N N  II  N  N N  G  GGG   !            |
|           WW  WW  A    A  R   R   N   NN  II  N   NN  G    G                |
|           W    W  A    A  R    R  N    N  II  N    N   GGGG   !!!           |
|                                                                             |
|     The real-space projection scheme for the treatment of the non-local     |
|     pseudopotentials has been switched on but on file POTCAR I have not     |
|     found any entries, signalling me that you have never performed a        |
|     real-space optimization of all non-local projectors! BE WARNED that     |
|     a calculation using the real-space projection scheme together with      |
|     non-local projectors which were not real-space optimized (according     |
|     to the plane-wave cutoff used in this calculation) might give more      |
|     or less inaccurate results. I hope you know what you are doing.         |
|                                                                             |
 -----------------------------------------------------------------------------

 -----------------------------------------------------------------------------
|                                                                             |
|               ----> ADVICE to this user running VASP <----                  |
|                                                                             |
|     You enforced a specific xc type in the INCAR file but a different       |
|     type was found in the POTCAR file.                                      |
|     I HOPE YOU KNOW WHAT YOU ARE DOING!                                     |
|                                                                             |
 -----------------------------------------------------------------------------

  PAW_PBE Pt 04Feb2005                  :
 energy of atom  1       EATOM= -729.1176
 kinetic energy error for atom=    0.0052 (will be added to EATOM!!)
  PAW_PBE C 08Apr2002                   :
 energy of atom  2       EATOM= -147.1560
 kinetic energy error for atom=    0.0192 (will be added to EATOM!!)
  PAW_PBE O 08Apr2002                   :
 energy of atom  3       EATOM= -432.3788
 kinetic energy error for atom=    0.0724 (will be added to EATOM!!)
 
 
 POSCAR: Pt16 C1 O1
  positions in direct lattice
  No initial velocities read in
 exchange correlation table for  LEXCH =        9
   RHO(1)=    0.500       N(1)  =     2000
   RHO(2)=  100.500       N(2)  =     4000
 


--------------------------------------------------------------------------------------------------------


 ion  position               nearest neighbor table
   1  0.016  0.141  0.406-   5 2.82   2 2.82   2 2.82   6 2.82   7 2.82   3 2.82   3 2.82   4 2.82
                             4 2.82
   2  0.016  0.641  0.406-   6 2.82   1 2.82   1 2.82   5 2.82   8 2.82   4 2.82   4 2.82   3 2.82
                             3 2.82
   3  0.516  0.141  0.406-   7 2.82   4 2.82   4 2.82   8 2.82   5 2.82   1 2.82   1 2.82   2 2.82
                             2 2.82
   4  0.516  0.641  0.406-   8 2.82   3 2.82   3 2.82   7 2.82   6 2.82   2 2.82   2 2.82   1 2.82
                             1 2.82
   5  0.172  0.297  0.469-   9 2.77  11 2.81   1 2.82   6 2.82   6 2.82   2 2.82   3 2.82   7 2.82
                             7 2.82   8 2.82   8 2.82  10 2.97
   6  0.172  0.797  0.469-  10 2.77  12 2.81   2 2.82   5 2.82   5 2.82   1 2.82   4 2.82   8 2.82
                             8 2.82   7 2.82   7 2.82   9 2.97
   7  0.672  0.297  0.469-  11 2.77   9 2.81   3 2.82   8 2.82   8 2.82   4 2.82   1 2.82   5 2.82
                             5 2.82   6 2.82   6 2.82  12 2.97
   8  0.672  0.797  0.469-  12 2.77  10 2.81   4 2.82   7 2.82   7 2.82   3 2.82   2 2.82   6 2.82
                             6 2.82   5 2.82   5 2.82  11 2.97
   9  0.343  0.409  0.532-   5 2.77   7 2.81  10 2.82  11 2.82  12 2.82  12 2.82  11 2.82  10 2.82
                            14 2.85  16 2.91   6 2.97  13 3.10
  10  0.343  0.909  0.532-   6 2.77   8 2.81  12 2.82  11 2.82   9 2.82   9 2.82  11 2.82  12 2.82
                            13 2.85  15 2.91   5 2.97  14 3.10
  11  0.843  0.409  0.532-   7 2.77   5 2.81  10 2.82  12 2.82   9 2.82   9 2.82  12 2.82  10 2.82
                            16 2.85  14 2.91   8 2.97  15 3.10
  12  0.843  0.909  0.532-   8 2.77   6 2.81  10 2.82  11 2.82   9 2.82   9 2.82  11 2.82  10 2.82
                            15 2.85  13 2.91   7 2.97  16 3.10
  13  0.513  0.011  0.599-  17 2.00  15 2.82  14 2.82  16 2.82  16 2.82  14 2.82  15 2.82  10 2.85
                            12 2.91   9 3.10
  14  0.513  0.511  0.599-  13 2.82  16 2.82  15 2.82  15 2.82  16 2.82  13 2.82   9 2.85  11 2.91
                            10 3.10
  15  0.013  0.010  0.599-  13 2.82  16 2.82  14 2.82  14 2.82  16 2.82  13 2.82  12 2.85  10 2.91
                            11 3.10
  16  0.013  0.511  0.599-  15 2.82  13 2.82  14 2.82  14 2.82  13 2.82  15 2.82  11 2.85   9 2.91
                            12 3.10
  17  0.504  0.001  0.653-  18 1.15  13 2.00
  18  0.499  0.996  0.684-  17 1.15
 

IMPORTANT INFORMATION: All symmetrisations will be switched off!
NOSYMM: (Re-)initialisation of all symmetry stuff for point group C_1.


----------------------------------------------------------------------------------------

                                     Primitive cell                                     

  volume of cell :    1013.3605

  direct lattice vectors                    reciprocal lattice vectors
     5.633072000  0.000000000  0.215543000     0.177523028 -0.102293022  0.000000000
     2.812412000  4.880762000  0.215543000     0.000000000  0.204886040  0.000000000
     0.000000000  0.000000000 36.857938000    -0.001038144 -0.000599958  0.027131198

  length of vectors
     5.637194244  5.637194137 36.857938000     0.204886036  0.204886040  0.027157680

  position of ions in fractional coordinates (direct lattice)
     0.015625000  0.140625000  0.406250000
     0.015625000  0.640625000  0.406250000
     0.515625000  0.140625000  0.406250000
     0.515625000  0.640625000  0.406250000
     0.171875000  0.296875000  0.468750000
     0.171875000  0.796875000  0.468750000
     0.671875000  0.296875000  0.468750000
     0.671875000  0.796875000  0.468750000
     0.342792000  0.409173000  0.532126000
     0.342803000  0.909138000  0.532132000
     0.842766000  0.409261000  0.532140000
     0.842875000  0.909234000  0.532132000
     0.513159000  0.010549000  0.598671000
     0.513126000  0.510509000  0.598684000
     0.013121000  0.010493000  0.598686000
     0.013114000  0.510523000  0.598681000
     0.504106000  0.001496000  0.652986000
     0.498900000  0.996289000  0.684227000

  ion indices of the primitive-cell ions
   primitive index   ion index
                 1           1
                 2           2
                 3           3
                 4           4
                 5           5
                 6           6
                 7           7
                 8           8
                 9           9
                10          10
                11          11
                12          12
                13          13
                14          14
                15          15
                16          16
                17          17
                18          18

----------------------------------------------------------------------------------------

 
 
 KPOINTS: Automatic kpoint scheme                 

Automatic generation of k-mesh.
 Grid dimensions read from file:
 generate k-points for:    2    2    1

 Generating k-lattice:

  Cartesian coordinates                     Fractional coordinates (reciprocal lattice)
     0.088761514 -0.051146511  0.000000000     0.500000000  0.000000000  0.000000000
     0.000000000  0.102443020  0.000000000     0.000000000  0.500000000  0.000000000
    -0.001038144 -0.000599958  0.027131198     0.000000000  0.000000000  1.000000000

  Length of vectors
     0.102443018  0.102443020  0.027157680

  Shift w.r.t. Gamma in fractional coordinates (k-lattice)
     0.000000000  0.000000000  0.000000000

 
 Subroutine IBZKPT returns following result:
 ===========================================
 
 Found      4 irreducible k-points:
 
 Following reciprocal coordinates:
            Coordinates               Weight
  0.000000  0.000000  0.000000      1.000000
  0.500000  0.000000  0.000000      1.000000
  0.000000  0.500000  0.000000      1.000000
  0.500000  0.500000  0.000000      1.000000
 
 Following cartesian coordinates:
            Coordinates               Weight
  0.000000  0.000000  0.000000      1.000000
  0.088762 -0.051147  0.000000      1.000000
  0.000000  0.102443  0.000000      1.000000
  0.088762  0.051297  0.000000      1.000000
 


--------------------------------------------------------------------------------------------------------




 Dimension of arrays:
   k-points           NKPTS =      4   k-points in BZ     NKDIM =      4   number of bands    NBANDS=    104
   number of dos      NEDOS =    301   number of ions     NIONS =     18
   non local maximal  LDIM  =      6   non local SUM 2l+1 LMDIM =     18
   total plane-waves  NPLWV = 150528
   max r-space proj   IRMAX =   1782   max aug-charges    IRDMAX=   9195
   dimension x,y,z NGX =    28 NGY =   28 NGZ =  192
   dimension x,y,z NGXF=    56 NGYF=   56 NGZF=  384
   support grid    NGXF=    56 NGYF=   56 NGZF=  384
   ions per type =              16   1   1
   NGX,Y,Z   is equivalent  to a cutoff of   8.26,  8.26,  8.66 a.u.
   NGXF,Y,Z  is equivalent  to a cutoff of  16.51, 16.51, 17.32 a.u.

 SYSTEM =  unknown system                          
 POSCAR =  Pt16 C1 O1                              

 Startparameter for this run:
   NWRITE =      2    write-flag & timer
   PREC   = normal    normal or accurate (medium, high low for compatibility)
   ISTART =      0    job   : 0-new  1-cont  2-samecut
   ICHARG =      2    charge: 1-file 2-atom 10-const
   ISPIN  =      1    spin polarized calculation?
   LNONCOLLINEAR =      F non collinear calculations
   LSORBIT =      F    spin-orbit coupling
   INIWAV =      1    electr: 0-lowe 1-rand  2-diag
   LASPH  =      F    aspherical Exc in radial PAW
   METAGGA=      F    non-selfconsistent MetaGGA calc.

 Electronic Relaxation 1
   ENCUT  =  420.0 eV  30.87 Ry    5.56 a.u.   9.42  9.42 61.59*2*pi/ulx,y,z
   ENINI  =  420.0     initial cutoff
   ENAUG  =  644.9 eV  augmentation charge cutoff
   NELM   =     60;   NELMIN=  4; NELMDL= -5     # of ELM steps 
   EDIFF  = 0.1E-03   stopping-criterion for ELM
   LREAL  =      T    real-space projection
   NLSPLINE    = F    spline interpolate recip. space projectors
   LCOMPAT=      F    compatible to vasp.4.4
   GGA_COMPAT  = T    GGA compatible to vasp.4.4-vasp.4.6
   LMAXPAW     = -100 max onsite density
   LMAXMIX     =    2 max onsite mixed and CHGCAR
   VOSKOWN=      0    Vosko Wilk Nusair interpolation
   ROPT   =    0.00000   0.00000   0.00000
 Ionic relaxation
   EDIFFG = 0.1E-02   stopping-criterion for IOM
   NSW    =    300    number of steps for IOM
   NBLOCK =      1;   KBLOCK =    300    inner block; outer block 
   IBRION =      2    ionic relax: 0-MD 1-quasi-New 2-CG
   NFREE  =      1    steps in history (QN), initial steepest desc. (CG)
   ISIF   =      0    stress and relaxation
   IWAVPR =     11    prediction:  0-non 1-charg 2-wave 3-comb
   ISYM   =      0    0-nonsym 1-usesym 2-fastsym
   LCORR  =      T    Harris-Foulkes like correction to forces

   POTIM  = 0.5000    time-step for ionic-motion
   TEIN   =    0.0    initial temperature
   TEBEG  =    0.0;   TEEND  =   0.0 temperature during run
   SMASS  =  -3.00    Nose mass-parameter (am)
   estimated Nose-frequenzy (Omega)   =  0.10E-29 period in steps = 0.13E+47 mass=  -0.726E-27a.u.
   SCALEE = 1.0000    scale energy and forces
   NPACO  =    256;   APACO  = 16.0  distance and # of slots for P.C.
   PSTRESS=    0.0 pullay stress

  Mass of Ions in am
   POMASS = 195.08 12.01 16.00
  Ionic Valenz
   ZVAL   =  10.00  4.00  6.00
  Atomic Wigner-Seitz radii
   RWIGS  =  -1.00 -1.00 -1.00
  virtual crystal weights 
   VCA    =   1.00  1.00  1.00
   NELECT =     170.0000    total number of electrons
   NUPDOWN=      -1.0000    fix difference up-down

 DOS related values:
   EMIN   =  10.00;   EMAX   =-10.00  energy-range for DOS
   EFERMI =   0.00
   ISMEAR =     0;   SIGMA  =   0.05  broadening in eV -4-tet -1-fermi 0-gaus

 Electronic relaxation 2 (details)
   IALGO  =     38    algorithm
   LDIAG  =      T    sub-space diagonalisation (order eigenvalues)
   LSUBROT=      F    optimize rotation matrix (better conditioning)
   TURBO    =      0    0=normal 1=particle mesh
   IRESTART =      0    0=no restart 2=restart with 2 vectors
   NREBOOT  =      0    no. of reboots
   NMIN     =      0    reboot dimension
   EREF     =   0.00    reference energy to select bands
   IMIX   =      4    mixing-type and parameters
     AMIX     =   0.20;   BMIX     =  0.00
     AMIX_MAG =   0.80;   BMIX_MAG =  0.00
     AMIN     =   0.01
     WC   =   100.;   INIMIX=   1;  MIXPRE=   1;  MAXMIX= -45

 Intra band minimization:
   WEIMIN = 0.0010     energy-eigenvalue tresh-hold
   EBREAK =  0.24E-06  absolut break condition
   DEPER  =   0.30     relativ break condition  

   TIME   =   0.40     timestep for ELM

  volume/ion in A,a.u.               =      56.30       379.92
  Fermi-wavevector in a.u.,A,eV,Ry     =   0.902893  1.706221 11.091694  0.815217
  Thomas-Fermi vector in A             =   2.026153
 
 Write flags
   LWAVE        =      F    write WAVECAR
   LDOWNSAMPLE  =      F    k-point downsampling of WAVECAR
   LCHARG       =      T    write CHGCAR
   LVTOT        =      F    write LOCPOT, total local potential
   LVHAR        =      F    write LOCPOT, Hartree potential only
   LELF         =      F    write electronic localiz. function (ELF)
   LORBIT       =     11    0 simple, 1 ext, 2 COOP (PROOUT), +10 PAW based schemes


 Dipole corrections
   LMONO  =      F    monopole corrections only (constant potential shift)
   LDIPOL =      F    correct potential (dipole corrections)
   IDIPOL =      0    1-x, 2-y, 3-z, 4-all directions 
   EPSILON=  1.0000000 bulk dielectric constant

 Exchange correlation treatment:
   GGA     =    RP    GGA type
   LEXCH   =     9    internal setting for exchange type
   VOSKOWN=      0    Vosko Wilk Nusair interpolation
   LHFCALC =     F    Hartree Fock is set to
   LHFONE  =     F    Hartree Fock one center treatment
   AEXX    =    0.0000 exact exchange contribution

 Linear response parameters
   LEPSILON=     F    determine dielectric tensor
   LRPA    =     F    only Hartree local field effects (RPA)
   LNABLA  =     F    use nabla operator in PAW spheres
   LVEL    =     F    velocity operator in full k-point grid
   LINTERFAST=   F  fast interpolation
   KINTER  =     0    interpolate to denser k-point grid
   CSHIFT  =0.1000    complex shift for real part using Kramers Kronig
   OMEGAMAX=  -1.0    maximum frequency
   DEG_THRESHOLD= 0.2000000E-02 threshold for treating states as degnerate
   RTIME   =   -0.100 relaxation time in fs
  (WPLASMAI=    0.000 imaginary part of plasma frequency in eV, 0.658/RTIME)
   DFIELD  = 0.0000000 0.0000000 0.0000000 field for delta impulse in time
 
 Orbital magnetization related:
   ORBITALMAG=     F  switch on orbital magnetization
   LCHIMAG   =     F  perturbation theory with respect to B field
   DQ        =  0.001000  dq finite difference perturbation B field
   LLRAUG    =     F  two centre corrections for induced B field



--------------------------------------------------------------------------------------------------------


 conjugate gradient relaxation of ions
   using selective dynamics as specified on POSCAR
 charge density and potential will be updated during run
 non-spin polarized calculation
 Variant of blocked Davidson
 Davidson routine will perform the subspace rotation
 perform sub-space diagonalisation
    after iterative eigenvector-optimisation
 modified Broyden-mixing scheme, WC =      100.0
 initial mixing is a Kerker type mixing with AMIX =  0.2000 and BMIX =      0.0010
 Hartree-type preconditioning will be used
 using additional bands            19
 real space projection scheme for non local part
 use partial core corrections
 calculate Harris-corrections to forces 
   (improved forces if not selfconsistent)
 use gradient corrections 
 use of overlap-Matrix (Vanderbilt PP)
 Gauss-broadening in eV      SIGMA  =   0.05


--------------------------------------------------------------------------------------------------------


  energy-cutoff  :      420.00
  volume of cell :     1013.36
      direct lattice vectors                 reciprocal lattice vectors
     5.633072000  0.000000000  0.215543000     0.177523028 -0.102293022  0.000000000
     2.812412000  4.880762000  0.215543000     0.000000000  0.204886040  0.000000000
     0.000000000  0.000000000 36.857938000    -0.001038144 -0.000599958  0.027131198

  length of vectors
     5.637194244  5.637194137 36.857938000     0.204886036  0.204886040  0.027157680


 
 k-points in units of 2pi/SCALE and weight: Automatic kpoint scheme                 
   0.00000000  0.00000000  0.00000000       0.250
   0.08876151 -0.05114651  0.00000000       0.250
   0.00000000  0.10244302  0.00000000       0.250
   0.08876151  0.05129651  0.00000000       0.250
 
 k-points in reciprocal lattice and weights: Automatic kpoint scheme                 
   0.00000000  0.00000000  0.00000000       0.250
   0.50000000  0.00000000  0.00000000       0.250
   0.00000000  0.50000000  0.00000000       0.250
   0.50000000  0.50000000  0.00000000       0.250
 
 position of ions in fractional coordinates (direct lattice) 
   0.01562500  0.14062500  0.40625000
   0.01562500  0.64062500  0.40625000
   0.51562500  0.14062500  0.40625000
   0.51562500  0.64062500  0.40625000
   0.17187500  0.29687500  0.46875000
   0.17187500  0.79687500  0.46875000
   0.67187500  0.29687500  0.46875000
   0.67187500  0.79687500  0.46875000
   0.34279200  0.40917300  0.53212600
   0.34280300  0.90913800  0.53213200
   0.84276600  0.40926100  0.53214000
   0.84287500  0.90923400  0.53213200
   0.51315900  0.01054900  0.59867100
   0.51312600  0.51050900  0.59868400
   0.01312100  0.01049300  0.59868600
   0.01311400  0.51052300  0.59868100
   0.50410600  0.00149600  0.65298600
   0.49890000  0.99628900  0.68422700
 
 position of ions in cartesian coordinates  (Angst):
   0.48351219  0.68635716 15.00721591
   1.88971819  3.12673816 15.11498741
   3.30004819  0.68635716 15.11498741
   4.70625419  3.12673816 15.22275891
   1.80311906  1.44897622 17.37819422
   3.20932506  3.88935722 17.48596572
   4.61965506  1.44897622 17.48596572
   6.02586106  3.88935722 17.59373722
   3.08173507  1.99707603 19.77514791
   4.48790460  4.43728620 19.88313538
   5.89837210  1.99750554 19.88344878
   7.30511617  4.43775476 19.99094309
   2.92032973  0.05148716 22.17866019
   4.32623734  2.49167293 22.28689511
   0.10342218  0.05121384 22.07142130
   1.50967312  2.49174126 22.17901347
   2.84387276  0.00730162 24.17669647
   5.61231476  4.86264949 25.54147387
 


--------------------------------------------------------------------------------------------------------


 k-point   1 :   0.0000 0.0000 0.0000  plane waves:   19835
 k-point   2 :   0.5000 0.0000 0.0000  plane waves:   19792
 k-point   3 :   0.0000 0.5000 0.0000  plane waves:   19792
 k-point   4 :   0.5000 0.5000 0.0000  plane waves:   19772

 maximum and minimum number of plane-waves per node :      4977     4923

 maximum number of plane-waves:     19835
 maximum index in each direction: 
   IXMAX=    9   IYMAX=    9   IZMAX=   61
   IXMIN=   -9   IYMIN=   -9   IZMIN=  -61


 real space projection operators:
  total allocation   :       3836.23 KBytes
  max/ min on nodes  :        959.75        958.19


 parallel 3D FFT for wavefunctions:
    minimum data exchange during FFTs selected (reduces bandwidth)
 parallel 3D FFT for charge:
    minimum data exchange during FFTs selected (reduces bandwidth)


 total amount of memory used by VASP MPI-rank0    51205. kBytes
=======================================================================

   base      :      30000. kBytes
   nonlr-proj:       1714. kBytes
   fftplans  :       3961. kBytes
   grid      :       7034. kBytes
   one-center:         77. kBytes
   wavefun   :       8419. kBytes
 
     INWAV:  cpu time    0.0001: real time    0.0001
 Broyden mixing: mesh for mixing (old mesh)
   NGX = 19   NGY = 19   NGZ =123
  (NGX  = 56   NGY  = 56   NGZ  =384)
  gives a total of  44403 points

 initial charge density was supplied:
 charge density of overlapping atoms calculated
 number of electron     170.0000000 magnetization 
 keeping initial charge density in first step


--------------------------------------------------------------------------------------------------------


 Maximum index for non-local projection operator           437
 Maximum index for augmentation-charges           759 (set IRDMAX)


--------------------------------------------------------------------------------------------------------


 First call to EWALD:  gamma=   0.176
 Maximum number of real-space cells 5x 5x 1
 Maximum number of reciprocal cells 2x 2x 9

    FEWALD:  cpu time    0.0026: real time    0.0026


--------------------------------------- Iteration      1(   1)  ---------------------------------------


    POTLOK:  cpu time    0.1305: real time    0.1306
    SETDIJ:  cpu time    0.0102: real time    0.0103
     EDDAV:  cpu time    2.5368: real time    2.5397
       DOS:  cpu time    0.0009: real time    0.0009
    --------------------------------------------
      LOOP:  cpu time    2.6785: real time    2.6815

 eigenvalue-minimisations  :   848
 total energy-change (2. order) : 0.1145144E+04  (-0.6187487E+04)
 number of electron     170.0000000 magnetization 
 augmentation part      170.0000000 magnetization 

 Free energy of the ion-electron system (eV)
  ---------------------------------------------------
  alpha Z        PSCENC =       262.47990408
  Ewald energy   TEWEN  =    139527.96361200
  -Hartree energ DENC   =   -151938.42510784
  -exchange      EXHF   =         0.00000000
  -V(xc)+E(xc)   XCENC  =        86.78599674
  PAW double counting   =     11602.90403888   -11137.02028253
  entropy T*S    EENTRO =        -0.01850550
  eigenvalues    EBANDS =       507.88004949
  atomic energy  EATOM  =     12232.59423587
  Solvation  Ediel_sol  =         0.00000000
  ---------------------------------------------------
  free energy    TOTEN  =      1145.14394118 eV

  energy without entropy =     1145.16244668  energy(sigma->0) =     1145.15319393


--------------------------------------------------------------------------------------------------------




--------------------------------------- Iteration      1(   2)  ---------------------------------------


     EDDAV:  cpu time    2.9501: real time    2.9617
       DOS:  cpu time    0.0029: real time    0.0029
    --------------------------------------------
      LOOP:  cpu time    2.9530: real time    2.9647

 eigenvalue-minimisations  :  1080
 total energy-change (2. order) :-0.1142830E+04  (-0.1056817E+04)
 number of electron     170.0000000 magnetization 
 augmentation part      170.0000000 magnetization 

 Free energy of the ion-electron system (eV)
  ---------------------------------------------------
  alpha Z        PSCENC =       262.47990408
  Ewald energy   TEWEN  =    139527.96361200
  -Hartree energ DENC   =   -151938.42510784
  -exchange      EXHF   =         0.00000000
  -V(xc)+E(xc)   XCENC  =        86.78599674
  PAW double counting   =     11602.90403888   -11137.02028253
  entropy T*S    EENTRO =        -0.01317441
  eigenvalues    EBANDS =      -634.95573239
  atomic energy  EATOM  =     12232.59423587
  Solvation  Ediel_sol  =         0.00000000
  ---------------------------------------------------
  free energy    TOTEN  =         2.31349040 eV

  energy without entropy =        2.32666481  energy(sigma->0) =        2.32007760


--------------------------------------------------------------------------------------------------------




--------------------------------------- Iteration      1(   3)  ---------------------------------------


     EDDAV:  cpu time    2.7458: real time    2.7541
       DOS:  cpu time    0.0007: real time    0.0007
    --------------------------------------------
      LOOP:  cpu time    2.7466: real time    2.7549

 eigenvalue-minimisations  :   976
 total energy-change (2. order) :-0.1051029E+03  (-0.9768989E+02)
 number of electron     170.0000000 magnetization 
 augmentation part      170.0000000 magnetization 

 Free energy of the ion-electron system (eV)
  ---------------------------------------------------
  alpha Z        PSCENC =       262.47990408
  Ewald energy   TEWEN  =    139527.96361200
  -Hartree energ DENC   =   -151938.42510784
  -exchange      EXHF   =         0.00000000
  -V(xc)+E(xc)   XCENC  =        86.78599674
  PAW double counting   =     11602.90403888   -11137.02028253
  entropy T*S    EENTRO =        -0.01433566
  eigenvalues    EBANDS =      -740.05742504
  atomic energy  EATOM  =     12232.59423587
  Solvation  Ediel_sol  =         0.00000000
  ---------------------------------------------------
  free energy    TOTEN  =      -102.78936350 eV

  energy without entropy =     -102.77502784  energy(sigma->0) =     -102.78219567


--------------------------------------------------------------------------------------------------------




--------------------------------------- Iteration      1(   4)  ---------------------------------------


     EDDAV:  cpu time    3.0985: real time    3.1053
       DOS:  cpu time    0.0008: real time    0.0008
    --------------------------------------------
      LOOP:  cpu time    3.0993: real time    3.1061

 eigenvalue-minimisations  :  1160
 total energy-change (2. order) :-0.4130866E+01  (-0.3915803E+01)
 number of electron     170.0000000 magnetization 
 augmentation part      170.0000000 magnetization 

 Free energy of the ion-electron system (eV)
  ---------------------------------------------------
  alpha Z        PSCENC =       262.47990408
  Ewald energy   TEWEN  =    139527.96361200
  -Hartree energ DENC   =   -151938.42510784
  -exchange      EXHF   =         0.00000000
  -V(xc)+E(xc)   XCENC  =        86.78599674
  PAW double counting   =     11602.90403888   -11137.02028253
  entropy T*S    EENTRO =        -0.02280178
  eigenvalues    EBANDS =      -744.17982521
  atomic energy  EATOM  =     12232.59423587
  Solvation  Ediel_sol  =         0.00000000
  ---------------------------------------------------
  free energy    TOTEN  =      -106.92022979 eV

  energy without entropy =     -106.89742801  energy(sigma->0) =     -106.90882890


--------------------------------------------------------------------------------------------------------




--------------------------------------- Iteration      1(   5)  ---------------------------------------


     EDDAV:  cpu time    3.0290: real time    3.0405
       DOS:  cpu time    0.0008: real time    0.0008
    CHARGE:  cpu time    0.1624: real time    0.1626
    MIXING:  cpu time    0.0028: real time    0.0028
    --------------------------------------------
      LOOP:  cpu time    3.1950: real time    3.2066

 eigenvalue-minimisations  :  1096
 total energy-change (2. order) :-0.1106150E+00  (-0.1094358E+00)
 number of electron     169.9999985 magnetization 
 augmentation part       47.6349452 magnetization 

 Broyden mixing:
  rms(total) = 0.37707E+01    rms(broyden)= 0.37705E+01
  rms(prec ) = 0.37997E+01
  weight for this iteration     100.00

 Free energy of the ion-electron system (eV)
  ---------------------------------------------------
  alpha Z        PSCENC =       262.47990408
  Ewald energy   TEWEN  =    139527.96361200
  -Hartree energ DENC   =   -151938.42510784
  -exchange      EXHF   =         0.00000000
  -V(xc)+E(xc)   XCENC  =        86.78599674
  PAW double counting   =     11602.90403888   -11137.02028253
  entropy T*S    EENTRO =        -0.02299262
  eigenvalues    EBANDS =      -744.29024939
  atomic energy  EATOM  =     12232.59423587
  Solvation  Ediel_sol  =         0.00000000
  ---------------------------------------------------
  free energy    TOTEN  =      -107.03084481 eV

  energy without entropy =     -107.00785219  energy(sigma->0) =     -107.01934850


--------------------------------------------------------------------------------------------------------




--------------------------------------- Iteration      1(   6)  ---------------------------------------


    POTLOK:  cpu time    0.1226: real time    0.1254
    SETDIJ:  cpu time    0.0095: real time    0.0095
     EDDAV:  cpu time    2.7214: real time    2.7328
       DOS:  cpu time    0.0008: real time    0.0008
    CHARGE:  cpu time    0.1665: real time    0.1667
    MIXING:  cpu time    0.0106: real time    0.0106
    --------------------------------------------
      LOOP:  cpu time    3.0314: real time    3.0459

 eigenvalue-minimisations  :   984
 total energy-change (2. order) :-0.8110472E+00  (-0.1662915E+01)
 number of electron     169.9999978 magnetization 
 augmentation part       49.6084084 magnetization 

 Broyden mixing:
  rms(total) = 0.39682E+01    rms(broyden)= 0.39681E+01
  rms(prec ) = 0.41633E+01
  weight for this iteration     100.00

 eigenvalues of (default mixing * dielectric matrix)
  average eigenvalue GAMMA=   0.3724
  0.3724

 Free energy of the ion-electron system (eV)
  ---------------------------------------------------
  alpha Z        PSCENC =       262.47990408
  Ewald energy   TEWEN  =    139527.96361200
  -Hartree energ DENC   =   -151646.70187157
  -exchange      EXHF   =         0.00000000
  -V(xc)+E(xc)   XCENC  =        85.03153108
  PAW double counting   =     12156.50097917   -11701.55624182
  entropy T*S    EENTRO =        -0.05349234
  eigenvalues    EBANDS =     -1024.10054850
  atomic energy  EATOM  =     12232.59423587
  Solvation  Ediel_sol  =         0.00000000
  ---------------------------------------------------
  free energy    TOTEN  =      -107.84189202 eV

  energy without entropy =     -107.78839968  energy(sigma->0) =     -107.81514585


--------------------------------------------------------------------------------------------------------




--------------------------------------- Iteration      1(   7)  ---------------------------------------


    POTLOK:  cpu time    0.1256: real time    0.1257
    SETDIJ:  cpu time    0.0098: real time    0.0098
     EDDAV:  cpu time    3.0698: real time    3.0844
       DOS:  cpu time    0.0027: real time    0.0027
    CHARGE:  cpu time    0.1641: real time    0.1644
    MIXING:  cpu time    0.0032: real time    0.0032
    --------------------------------------------
      LOOP:  cpu time    3.3753: real time    3.3902

 eigenvalue-minimisations  :  1136
 total energy-change (2. order) :-0.2040636E+02  (-0.5659221E+01)
 number of electron     169.9999976 magnetization 
 augmentation part       48.3171558 magnetization 

 Broyden mixing:
  rms(total) = 0.48847E+01    rms(broyden)= 0.48846E+01
  rms(prec ) = 0.58470E+01
  weight for this iteration     100.00

 eigenvalues of (default mixing * dielectric matrix)
  average eigenvalue GAMMA=   0.3393
  0.5651  0.1134

 Free energy of the ion-electron system (eV)
  ---------------------------------------------------
  alpha Z        PSCENC =       262.47990408
  Ewald energy   TEWEN  =    139527.96361200
  -Hartree energ DENC   =   -151887.78948387
  -exchange      EXHF   =         0.00000000
  -V(xc)+E(xc)   XCENC  =        84.85258894
  PAW double counting   =     12332.81598728   -11880.00320031
  entropy T*S    EENTRO =        -0.02840375
  eigenvalues    EBANDS =      -801.13348944
  atomic energy  EATOM  =     12232.59423587
  Solvation  Ediel_sol  =         0.00000000
  ---------------------------------------------------
  free energy    TOTEN  =      -128.24824920 eV

  energy without entropy =     -128.21984544  energy(sigma->0) =     -128.23404732


--------------------------------------------------------------------------------------------------------




--------------------------------------- Iteration      1(   8)  ---------------------------------------


    POTLOK:  cpu time    0.1210: real time    0.1211
    SETDIJ:  cpu time    0.0097: real time    0.0097
     EDDAV:  cpu time    3.1252: real time    3.1343
       DOS:  cpu time    0.0008: real time    0.0008
    CHARGE:  cpu time    0.1689: real time    0.1690
    MIXING:  cpu time    0.0036: real time    0.0037
    --------------------------------------------
      LOOP:  cpu time    3.4292: real time    3.4386

 eigenvalue-minimisations  :  1152
 total energy-change (2. order) : 0.8711325E+01  (-0.1018461E+02)
 number of electron     169.9999984 magnetization 
 augmentation part       48.1710552 magnetization 

 Broyden mixing:
  rms(total) = 0.43666E+01    rms(broyden)= 0.43664E+01
  rms(prec ) = 0.50033E+01
  weight for this iteration     100.00

 eigenvalues of (default mixing * dielectric matrix)
  average eigenvalue GAMMA=   0.5345
  1.3086  0.2150  0.0799

 Free energy of the ion-electron system (eV)
  ---------------------------------------------------
  alpha Z        PSCENC =       262.47990408
  Ewald energy   TEWEN  =    139527.96361200
  -Hartree energ DENC   =   -151924.29352226
  -exchange      EXHF   =         0.00000000
  -V(xc)+E(xc)   XCENC  =        84.54809680
  PAW double counting   =     12491.19667088   -12040.66098115
  entropy T*S    EENTRO =        -0.05582360
  eigenvalues    EBANDS =      -753.30911691
  atomic energy  EATOM  =     12232.59423587
  Solvation  Ediel_sol  =         0.00000000
  ---------------------------------------------------
  free energy    TOTEN  =      -119.53692429 eV

  energy without entropy =     -119.48110069  energy(sigma->0) =     -119.50901249


--------------------------------------------------------------------------------------------------------




--------------------------------------- Iteration      1(   9)  ---------------------------------------


    POTLOK:  cpu time    0.1251: real time    0.1252
    SETDIJ:  cpu time    0.0096: real time    0.0096
     EDDAV:  cpu time    2.9063: real time    2.9151
       DOS:  cpu time    0.0008: real time    0.0008
    CHARGE:  cpu time    0.1639: real time    0.1641
    MIXING:  cpu time    0.0032: real time    0.0032
    --------------------------------------------
      LOOP:  cpu time    3.2090: real time    3.2181

 eigenvalue-minimisations  :  1056
 total energy-change (2. order) : 0.1112242E+02  (-0.6384333E+01)
 number of electron     169.9999977 magnetization 
 augmentation part       50.5783668 magnetization 

 Broyden mixing:
  rms(total) = 0.28476E+01    rms(broyden)= 0.28474E+01
  rms(prec ) = 0.32567E+01
  weight for this iteration     100.00

 eigenvalues of (default mixing * dielectric matrix)
  average eigenvalue GAMMA=   0.9759
  3.0099  0.5899  0.2306  0.0732

 Free energy of the ion-electron system (eV)
  ---------------------------------------------------
  alpha Z        PSCENC =       262.47990408
  Ewald energy   TEWEN  =    139527.96361200
  -Hartree energ DENC   =   -151674.15064938
  -exchange      EXHF   =         0.00000000
  -V(xc)+E(xc)   XCENC  =        83.49786928
  PAW double counting   =     13011.07971655   -12568.07860969
  entropy T*S    EENTRO =        -0.02933090
  eigenvalues    EBANDS =      -983.77125087
  atomic energy  EATOM  =     12232.59423587
  Solvation  Ediel_sol  =         0.00000000
  ---------------------------------------------------
  free energy    TOTEN  =      -108.41450306 eV

  energy without entropy =     -108.38517216  energy(sigma->0) =     -108.39983761


--------------------------------------------------------------------------------------------------------




--------------------------------------- Iteration      1(  10)  ---------------------------------------


    POTLOK:  cpu time    0.1219: real time    0.1246
    SETDIJ:  cpu time    0.0098: real time    0.0097
     EDDAV:  cpu time    2.2538: real time    2.2642
       DOS:  cpu time    0.0009: real time    0.0009
    CHARGE:  cpu time    0.1354: real time    0.1354
    MIXING:  cpu time    0.0031: real time    0.0030
    --------------------------------------------
      LOOP:  cpu time    2.5248: real time    2.5380

 eigenvalue-minimisations  :   904
 total energy-change (2. order) : 0.1257957E+01  (-0.2189779E+01)
 number of electron     169.9999970 magnetization 
 augmentation part       51.4251221 magnetization 

 Broyden mixing:
  rms(total) = 0.23272E+01    rms(broyden)= 0.23271E+01
  rms(prec ) = 0.28130E+01
  weight for this iteration     100.00

 eigenvalues of (default mixing * dielectric matrix)
  average eigenvalue GAMMA=   1.0088
  3.4370  0.9309  0.3603  0.2421  0.0735

 Free energy of the ion-electron system (eV)
  ---------------------------------------------------
  alpha Z        PSCENC =       262.47990408
  Ewald energy   TEWEN  =    139527.96361200
  -Hartree energ DENC   =   -151686.15123678
  -exchange      EXHF   =         0.00000000
  -V(xc)+E(xc)   XCENC  =        82.58397043
  PAW double counting   =     14175.25563054   -13743.04267643
  entropy T*S    EENTRO =        -0.02180050
  eigenvalues    EBANDS =      -958.81818538
  atomic energy  EATOM  =     12232.59423587
  Solvation  Ediel_sol  =         0.00000000
  ---------------------------------------------------
  free energy    TOTEN  =      -107.15654617 eV

  energy without entropy =     -107.13474567  energy(sigma->0) =     -107.14564592


--------------------------------------------------------------------------------------------------------




--------------------------------------- Iteration      1(  11)  ---------------------------------------


    POTLOK:  cpu time    0.1123: real time    0.1150
    SETDIJ:  cpu time    0.0093: real time    0.0093
     EDDAV:  cpu time    2.4555: real time    2.4633
       DOS:  cpu time    0.0008: real time    0.0008
    CHARGE:  cpu time    0.1612: real time    0.1641
    MIXING:  cpu time    0.0035: real time    0.0035
    --------------------------------------------
      LOOP:  cpu time    2.7426: real time    2.7561

 eigenvalue-minimisations  :   952
 total energy-change (2. order) :-0.8056431E+00  (-0.2484762E+01)
 number of electron     169.9999980 magnetization 
 augmentation part       51.2756989 magnetization 

 Broyden mixing:
  rms(total) = 0.23426E+01    rms(broyden)= 0.23425E+01
  rms(prec ) = 0.28836E+01
  weight for this iteration     100.00

 eigenvalues of (default mixing * dielectric matrix)
  average eigenvalue GAMMA=   1.0783
  3.9065  1.4539  0.0736  0.2271  0.4044  0.4044

 Free energy of the ion-electron system (eV)
  ---------------------------------------------------
  alpha Z        PSCENC =       262.47990408
  Ewald energy   TEWEN  =    139527.96361200
  -Hartree energ DENC   =   -151707.45027768
  -exchange      EXHF   =         0.00000000
  -V(xc)+E(xc)   XCENC  =        82.70125078
  PAW double counting   =     14532.06752350   -14101.95047703
  entropy T*S    EENTRO =        -0.02164534
  eigenvalues    EBANDS =      -936.34631549
  atomic energy  EATOM  =     12232.59423587
  Solvation  Ediel_sol  =         0.00000000
  ---------------------------------------------------
  free energy    TOTEN  =      -107.96218931 eV

  energy without entropy =     -107.94054397  energy(sigma->0) =     -107.95136664


--------------------------------------------------------------------------------------------------------




--------------------------------------- Iteration      1(  12)  ---------------------------------------


    POTLOK:  cpu time    0.1177: real time    0.1178
    SETDIJ:  cpu time    0.0093: real time    0.0093
     EDDAV:  cpu time    2.6564: real time    2.6618
       DOS:  cpu time    0.0008: real time    0.0008
    CHARGE:  cpu time    0.1657: real time    0.1659
    MIXING:  cpu time    0.0038: real time    0.0038
    --------------------------------------------
      LOOP:  cpu time    2.9537: real time    2.9593

 eigenvalue-minimisations  :   984
 total energy-change (2. order) : 0.1349343E+01  (-0.4265133E+00)
 number of electron     169.9999978 magnetization 
 augmentation part       50.7587308 magnetization 

 Broyden mixing:
  rms(total) = 0.17899E+01    rms(broyden)= 0.17898E+01
  rms(prec ) = 0.23363E+01
  weight for this iteration     100.00

 eigenvalues of (default mixing * dielectric matrix)
  average eigenvalue GAMMA=   0.9991
  4.0056  1.2382  0.5227  0.5227  0.0735  0.2302  0.4010

 Free energy of the ion-electron system (eV)
  ---------------------------------------------------
  alpha Z        PSCENC =       262.47990408
  Ewald energy   TEWEN  =    139527.96361200
  -Hartree energ DENC   =   -151777.99189450
  -exchange      EXHF   =         0.00000000
  -V(xc)+E(xc)   XCENC  =        82.69341519
  PAW double counting   =     14877.29468399   -14449.42273539
  entropy T*S    EENTRO =        -0.04099190
  eigenvalues    EBANDS =      -862.18307542
  atomic energy  EATOM  =     12232.59423587
  Solvation  Ediel_sol  =         0.00000000
  ---------------------------------------------------
  free energy    TOTEN  =      -106.61284608 eV

  energy without entropy =     -106.57185418  energy(sigma->0) =     -106.59235013


--------------------------------------------------------------------------------------------------------




--------------------------------------- Iteration      1(  13)  ---------------------------------------


    POTLOK:  cpu time    0.1192: real time    0.1193
    SETDIJ:  cpu time    0.0096: real time    0.0096
     EDDAV:  cpu time    2.5923: real time    2.6012
       DOS:  cpu time    0.0008: real time    0.0008
    CHARGE:  cpu time    0.1514: real time    0.1516
    MIXING:  cpu time    0.0038: real time    0.0038
    --------------------------------------------
      LOOP:  cpu time    2.8772: real time    2.8863

 eigenvalue-minimisations  :   936
 total energy-change (2. order) : 0.4488646E+01  (-0.2199766E+00)
 number of electron     169.9999984 magnetization 
 augmentation part       50.9224145 magnetization 

 Broyden mixing:
  rms(total) = 0.10420E+01    rms(broyden)= 0.10420E+01
  rms(prec ) = 0.12755E+01
  weight for this iteration     100.00

 eigenvalues of (default mixing * dielectric matrix)
  average eigenvalue GAMMA=   0.9753
  4.0428  1.1060  1.1060  0.4611  0.4611  0.0735  0.2305  0.3215

 Free energy of the ion-electron system (eV)
  ---------------------------------------------------
  alpha Z        PSCENC =       262.47990408
  Ewald energy   TEWEN  =    139527.96361200
  -Hartree energ DENC   =   -151790.29425548
  -exchange      EXHF   =         0.00000000
  -V(xc)+E(xc)   XCENC  =        82.57961923
  PAW double counting   =     14907.04104986   -14480.01124152
  entropy T*S    EENTRO =        -0.03309858
  eigenvalues    EBANDS =      -844.44402560
  atomic energy  EATOM  =     12232.59423587
  Solvation  Ediel_sol  =         0.00000000
  ---------------------------------------------------
  free energy    TOTEN  =      -102.12420013 eV

  energy without entropy =     -102.09110155  energy(sigma->0) =     -102.10765084


--------------------------------------------------------------------------------------------------------




--------------------------------------- Iteration      1(  14)  ---------------------------------------


    POTLOK:  cpu time    0.1175: real time    0.1175
    SETDIJ:  cpu time    0.0097: real time    0.0097
     EDDAV:  cpu time    2.5156: real time    2.5629
       DOS:  cpu time    0.0012: real time    0.0012
    CHARGE:  cpu time    0.1585: real time    0.1616
    MIXING:  cpu time    0.0048: real time    0.0048
    --------------------------------------------
      LOOP:  cpu time    2.8072: real time    2.8576

 eigenvalue-minimisations  :   896
 total energy-change (2. order) : 0.1306533E+01  (-0.4005190E+00)
 number of electron     169.9999980 magnetization 
 augmentation part       50.9823375 magnetization 

 Broyden mixing:
  rms(total) = 0.75399E+00    rms(broyden)= 0.75392E+00
  rms(prec ) = 0.77028E+00
  weight for this iteration     100.00

 eigenvalues of (default mixing * dielectric matrix)
  average eigenvalue GAMMA=   0.9522
  4.2949  1.0320  1.0320  0.5443  0.5443  0.0735  0.2304  0.4239  0.3949

 Free energy of the ion-electron system (eV)
  ---------------------------------------------------
  alpha Z        PSCENC =       262.47990408
  Ewald energy   TEWEN  =    139527.96361200
  -Hartree energ DENC   =   -151799.61982451
  -exchange      EXHF   =         0.00000000
  -V(xc)+E(xc)   XCENC  =        82.63846586
  PAW double counting   =     14891.88154008   -14465.03369824
  entropy T*S    EENTRO =        -0.03645641
  eigenvalues    EBANDS =      -833.68544601
  atomic energy  EATOM  =     12232.59423587
  Solvation  Ediel_sol  =         0.00000000
  ---------------------------------------------------
  free energy    TOTEN  =      -100.81766728 eV

  energy without entropy =     -100.78121087  energy(sigma->0) =     -100.79943907


--------------------------------------------------------------------------------------------------------




--------------------------------------- Iteration      1(  15)  ---------------------------------------


    POTLOK:  cpu time    0.1376: real time    0.1405
    SETDIJ:  cpu time    0.0099: real time    0.0099
     EDDAV:  cpu time    2.6153: real time    2.6850
       DOS:  cpu time    0.0012: real time    0.0012
    CHARGE:  cpu time    0.1626: real time    0.1661
    MIXING:  cpu time    0.0051: real time    0.0051
    --------------------------------------------
      LOOP:  cpu time    2.9317: real time    3.0079

 eigenvalue-minimisations  :   912
 total energy-change (2. order) :-0.1563863E+00  (-0.8864952E-01)
 number of electron     169.9999979 magnetization 
 augmentation part       51.1530196 magnetization 

 Broyden mixing:
  rms(total) = 0.85869E+00    rms(broyden)= 0.85867E+00
  rms(prec ) = 0.91956E+00
  weight for this iteration     100.00

 eigenvalues of (default mixing * dielectric matrix)
  average eigenvalue GAMMA=   0.9281
  4.4089  0.9695  0.9695  0.7253  0.7253  0.0735  0.4399  0.4399  0.2304  0.2987

 Free energy of the ion-electron system (eV)
  ---------------------------------------------------
  alpha Z        PSCENC =       262.47990408
  Ewald energy   TEWEN  =    139527.96361200
  -Hartree energ DENC   =   -151759.98178469
  -exchange      EXHF   =         0.00000000
  -V(xc)+E(xc)   XCENC  =        82.61779018
  PAW double counting   =     14952.85810868   -14526.74174947
  entropy T*S    EENTRO =        -0.04196921
  eigenvalues    EBANDS =      -872.72220101
  atomic energy  EATOM  =     12232.59423587
  Solvation  Ediel_sol  =         0.00000000
  ---------------------------------------------------
  free energy    TOTEN  =      -100.97405359 eV

  energy without entropy =     -100.93208437  energy(sigma->0) =     -100.95306898


--------------------------------------------------------------------------------------------------------




--------------------------------------- Iteration      1(  16)  ---------------------------------------


    POTLOK:  cpu time    0.1379: real time    0.1434
    SETDIJ:  cpu time    0.0096: real time    0.0103
     EDDAV:  cpu time    2.5932: real time    2.6662
       DOS:  cpu time    0.0011: real time    0.0011
    CHARGE:  cpu time    0.3282: real time    0.3861
    MIXING:  cpu time    0.0052: real time    0.0052
    --------------------------------------------
      LOOP:  cpu time    3.0753: real time    3.2123

 eigenvalue-minimisations  :   912
 total energy-change (2. order) : 0.1302307E+00  (-0.1015098E+00)
 number of electron     169.9999977 magnetization 
 augmentation part       51.0721982 magnetization 

 Broyden mixing:
  rms(total) = 0.69081E+00    rms(broyden)= 0.69078E+00
  rms(prec ) = 0.70206E+00
  weight for this iteration     100.00

 eigenvalues of (default mixing * dielectric matrix)
  average eigenvalue GAMMA=   0.8906
  4.4651  0.8442  0.8442  0.9787  0.9787  0.0735  0.4324  0.4324  0.3309  0.2303
  0.1864

 Free energy of the ion-electron system (eV)
  ---------------------------------------------------
  alpha Z        PSCENC =       262.47990408
  Ewald energy   TEWEN  =    139527.96361200
  -Hartree energ DENC   =   -151755.58977663
  -exchange      EXHF   =         0.00000000
  -V(xc)+E(xc)   XCENC  =        82.65259899
  PAW double counting   =     14985.55474874   -14559.68345485
  entropy T*S    EENTRO =        -0.02480764
  eigenvalues    EBANDS =      -876.79088343
  atomic energy  EATOM  =     12232.59423587
  Solvation  Ediel_sol  =         0.00000000
  ---------------------------------------------------
  free energy    TOTEN  =      -100.84382288 eV

  energy without entropy =     -100.81901524  energy(sigma->0) =     -100.83141906


--------------------------------------------------------------------------------------------------------




--------------------------------------- Iteration      1(  17)  ---------------------------------------


    POTLOK:  cpu time    0.1356: real time    0.1390
    SETDIJ:  cpu time    0.0096: real time    0.0096
     EDDAV:  cpu time    2.8832: real time    3.0333
       DOS:  cpu time    0.0010: real time    0.0011
    CHARGE:  cpu time    0.1420: real time    0.1504
    MIXING:  cpu time    0.0048: real time    0.0048
    --------------------------------------------
      LOOP:  cpu time    3.1761: real time    3.3382

 eigenvalue-minimisations  :   968
 total energy-change (2. order) : 0.5179548E-01  (-0.5947925E-02)
 number of electron     169.9999977 magnetization 
 augmentation part       51.0507445 magnetization 

 Broyden mixing:
  rms(total) = 0.64135E+00    rms(broyden)= 0.64135E+00
  rms(prec ) = 0.65523E+00
  weight for this iteration     100.00

 eigenvalues of (default mixing * dielectric matrix)
  average eigenvalue GAMMA=   0.9228
  4.4997  1.2070  1.2070  0.9905  0.6723  0.5054  0.5054  0.0735  0.5150  0.3971
  0.2305  0.2698

 Free energy of the ion-electron system (eV)
  ---------------------------------------------------
  alpha Z        PSCENC =       262.47990408
  Ewald energy   TEWEN  =    139527.96361200
  -Hartree energ DENC   =   -151754.52652674
  -exchange      EXHF   =         0.00000000
  -V(xc)+E(xc)   XCENC  =        82.68602063
  PAW double counting   =     14989.18000012   -14563.43671809
  entropy T*S    EENTRO =        -0.02647668
  eigenvalues    EBANDS =      -877.70607860
  atomic energy  EATOM  =     12232.59423587
  Solvation  Ediel_sol  =         0.00000000
  ---------------------------------------------------
  free energy    TOTEN  =      -100.79202740 eV

  energy without entropy =     -100.76555073  energy(sigma->0) =     -100.77878906


--------------------------------------------------------------------------------------------------------




--------------------------------------- Iteration      1(  18)  ---------------------------------------


    POTLOK:  cpu time    0.1285: real time    0.1316
    SETDIJ:  cpu time    0.0093: real time    0.0099
     EDDAV:  cpu time    2.1250: real time    2.1416
       DOS:  cpu time    0.0008: real time    0.0008
    CHARGE:  cpu time    0.1424: real time    0.1425
    MIXING:  cpu time    0.0043: real time    0.0043
    --------------------------------------------
      LOOP:  cpu time    2.4103: real time    2.4307

 eigenvalue-minimisations  :   896
 total energy-change (2. order) :-0.3781553E-01  (-0.1427106E-01)
 number of electron     169.9999981 magnetization 
 augmentation part       50.9913592 magnetization 

 Broyden mixing:
  rms(total) = 0.74609E+00    rms(broyden)= 0.74607E+00
  rms(prec ) = 0.82049E+00
  weight for this iteration     100.00

 eigenvalues of (default mixing * dielectric matrix)
  average eigenvalue GAMMA=   0.9577
  4.5760  1.2326  1.2326  1.2709  1.1434  0.5732  0.5732  0.0735  0.4681  0.4681
  0.3458  0.2304  0.2626

 Free energy of the ion-electron system (eV)
  ---------------------------------------------------
  alpha Z        PSCENC =       262.47990408
  Ewald energy   TEWEN  =    139527.96361200
  -Hartree energ DENC   =   -151765.34668380
  -exchange      EXHF   =         0.00000000
  -V(xc)+E(xc)   XCENC  =        82.80266617
  PAW double counting   =     14955.72666916   -14529.87698645
  entropy T*S    EENTRO =        -0.02358411
  eigenvalues    EBANDS =      -867.14967586
  atomic energy  EATOM  =     12232.59423587
  Solvation  Ediel_sol  =         0.00000000
  ---------------------------------------------------
  free energy    TOTEN  =      -100.82984293 eV

  energy without entropy =     -100.80625882  energy(sigma->0) =     -100.81805087


--------------------------------------------------------------------------------------------------------




--------------------------------------- Iteration      1(  19)  ---------------------------------------


    POTLOK:  cpu time    0.1137: real time    0.1141
    SETDIJ:  cpu time    0.0094: real time    0.0094
     EDDAV:  cpu time    2.2369: real time    2.2432
       DOS:  cpu time    0.0008: real time    0.0008
    CHARGE:  cpu time    0.1489: real time    0.1490
    MIXING:  cpu time    0.0049: real time    0.0049
    --------------------------------------------
      LOOP:  cpu time    2.5146: real time    2.5214

 eigenvalue-minimisations  :   904
 total energy-change (2. order) : 0.1194345E+00  (-0.2531873E-01)
 number of electron     169.9999978 magnetization 
 augmentation part       50.8611031 magnetization 

 Broyden mixing:
  rms(total) = 0.68627E+00    rms(broyden)= 0.68626E+00
  rms(prec ) = 0.76070E+00
  weight for this iteration     100.00

 eigenvalues of (default mixing * dielectric matrix)
  average eigenvalue GAMMA=   0.9729
  4.5133  1.8532  1.8532  1.0441  0.6953  0.6953  0.0735  0.5438  0.5438  0.4833
  0.4833  0.3431  0.2304  0.2643

 Free energy of the ion-electron system (eV)
  ---------------------------------------------------
  alpha Z        PSCENC =       262.47990408
  Ewald energy   TEWEN  =    139527.96361200
  -Hartree energ DENC   =   -151786.50700505
  -exchange      EXHF   =         0.00000000
  -V(xc)+E(xc)   XCENC  =        83.00337783
  PAW double counting   =     14913.88418599   -14487.74102228
  entropy T*S    EENTRO =        -0.03425431
  eigenvalues    EBANDS =      -846.35344262
  atomic energy  EATOM  =     12232.59423587
  Solvation  Ediel_sol  =         0.00000000
  ---------------------------------------------------
  free energy    TOTEN  =      -100.71040848 eV

  energy without entropy =     -100.67615417  energy(sigma->0) =     -100.69328132


--------------------------------------------------------------------------------------------------------




--------------------------------------- Iteration      1(  20)  ---------------------------------------


    POTLOK:  cpu time    0.1147: real time    0.1149
    SETDIJ:  cpu time    0.0094: real time    0.0094
     EDDAV:  cpu time    2.2278: real time    2.2342
       DOS:  cpu time    0.0009: real time    0.0009
    CHARGE:  cpu time    0.1449: real time    0.1451
    MIXING:  cpu time    0.0050: real time    0.0050
    --------------------------------------------
      LOOP:  cpu time    2.5026: real time    2.5095

 eigenvalue-minimisations  :   912
 total energy-change (2. order) : 0.3113085E+00  (-0.4360846E-01)
 number of electron     169.9999977 magnetization 
 augmentation part       50.8095256 magnetization 

 Broyden mixing:
  rms(total) = 0.41142E+00    rms(broyden)= 0.41140E+00
  rms(prec ) = 0.42109E+00
  weight for this iteration     100.00

 eigenvalues of (default mixing * dielectric matrix)
  average eigenvalue GAMMA=   0.9934
  4.3981  2.2858  2.2858  0.7268  0.7268  0.8323  0.8323  0.0735  0.4954  0.4954
  0.4569  0.4569  0.3440  0.2304  0.2611

 Free energy of the ion-electron system (eV)
  ---------------------------------------------------
  alpha Z        PSCENC =       262.47990408
  Ewald energy   TEWEN  =    139527.96361200
  -Hartree energ DENC   =   -151794.09075127
  -exchange      EXHF   =         0.00000000
  -V(xc)+E(xc)   XCENC  =        83.10635204
  PAW double counting   =     14868.49230377   -14442.08971939
  entropy T*S    EENTRO =        -0.02928467
  eigenvalues    EBANDS =      -838.82575238
  atomic energy  EATOM  =     12232.59423587
  Solvation  Ediel_sol  =         0.00000000
  ---------------------------------------------------
  free energy    TOTEN  =      -100.39909994 eV

  energy without entropy =     -100.36981528  energy(sigma->0) =     -100.38445761


--------------------------------------------------------------------------------------------------------




--------------------------------------- Iteration      1(  21)  ---------------------------------------


    POTLOK:  cpu time    0.1146: real time    0.1149
    SETDIJ:  cpu time    0.0094: real time    0.0094
     EDDAV:  cpu time    2.2731: real time    2.2792
       DOS:  cpu time    0.0008: real time    0.0008
    CHARGE:  cpu time    0.1342: real time    0.1370
    MIXING:  cpu time    0.0051: real time    0.0051
    --------------------------------------------
      LOOP:  cpu time    2.5372: real time    2.5465

 eigenvalue-minimisations  :   944
 total energy-change (2. order) : 0.7647035E-01  (-0.1199964E-01)
 number of electron     169.9999978 magnetization 
 augmentation part       50.7661683 magnetization 

 Broyden mixing:
  rms(total) = 0.26323E+00    rms(broyden)= 0.26321E+00
  rms(prec ) = 0.27186E+00
  weight for this iteration     100.00

 eigenvalues of (default mixing * dielectric matrix)
  average eigenvalue GAMMA=   0.9741
  4.2072  2.3928  2.3928  0.9358  0.9358  0.7460  0.7460  0.0735  0.4838  0.4838
  0.4555  0.4555  0.4394  0.3447  0.2304  0.2621

 Free energy of the ion-electron system (eV)
  ---------------------------------------------------
  alpha Z        PSCENC =       262.47990408
  Ewald energy   TEWEN  =    139527.96361200
  -Hartree energ DENC   =   -151805.97428472
  -exchange      EXHF   =         0.00000000
  -V(xc)+E(xc)   XCENC  =        83.18761890
  PAW double counting   =     14826.71101047   -14400.07480447
  entropy T*S    EENTRO =        -0.04211003
  eigenvalues    EBANDS =      -827.16781169
  atomic energy  EATOM  =     12232.59423587
  Solvation  Ediel_sol  =         0.00000000
  ---------------------------------------------------
  free energy    TOTEN  =      -100.32262960 eV

  energy without entropy =     -100.28051956  energy(sigma->0) =     -100.30157458


--------------------------------------------------------------------------------------------------------




--------------------------------------- Iteration      1(  22)  ---------------------------------------


    POTLOK:  cpu time    0.1157: real time    0.1160
    SETDIJ:  cpu time    0.0094: real time    0.0094
     EDDAV:  cpu time    2.1759: real time    2.1798
       DOS:  cpu time    0.0016: real time    0.0016
    CHARGE:  cpu time    0.1354: real time    0.1355
    MIXING:  cpu time    0.0050: real time    0.0050
    --------------------------------------------
      LOOP:  cpu time    2.4431: real time    2.4473

 eigenvalue-minimisations  :   928
 total energy-change (2. order) : 0.1135586E-01  (-0.2881938E-02)
 number of electron     169.9999977 magnetization 
 augmentation part       50.7562046 magnetization 

 Broyden mixing:
  rms(total) = 0.28393E+00    rms(broyden)= 0.28393E+00
  rms(prec ) = 0.29096E+00
  weight for this iteration     100.00

 eigenvalues of (default mixing * dielectric matrix)
  average eigenvalue GAMMA=   0.9208
  4.2249  2.3708  2.3708  0.9361  0.9361  0.7419  0.7419  0.4826  0.4826  0.0735
  0.4570  0.4570  0.4342  0.3452  0.2304  0.2620  0.1064

 Free energy of the ion-electron system (eV)
  ---------------------------------------------------
  alpha Z        PSCENC =       262.47990408
  Ewald energy   TEWEN  =    139527.96361200
  -Hartree energ DENC   =   -151810.47893685
  -exchange      EXHF   =         0.00000000
  -V(xc)+E(xc)   XCENC  =        83.19852488
  PAW double counting   =     14811.03146468   -14384.22351137
  entropy T*S    EENTRO =        -0.03619211
  eigenvalues    EBANDS =      -822.84037491
  atomic energy  EATOM  =     12232.59423587
  Solvation  Ediel_sol  =         0.00000000
  ---------------------------------------------------
  free energy    TOTEN  =      -100.31127373 eV

  energy without entropy =     -100.27508162  energy(sigma->0) =     -100.29317768


--------------------------------------------------------------------------------------------------------




--------------------------------------- Iteration      1(  23)  ---------------------------------------


    POTLOK:  cpu time    0.1145: real time    0.1149
    SETDIJ:  cpu time    0.0093: real time    0.0093
     EDDAV:  cpu time    2.0726: real time    2.0759
       DOS:  cpu time    0.0008: real time    0.0008
    CHARGE:  cpu time    0.1363: real time    0.1364
    MIXING:  cpu time    0.0051: real time    0.0051
    --------------------------------------------
      LOOP:  cpu time    2.3386: real time    2.3424

 eigenvalue-minimisations  :   864
 total energy-change (2. order) :-0.2695396E-02  (-0.1769346E-03)
 number of electron     169.9999977 magnetization 
 augmentation part       50.7570277 magnetization 

 Broyden mixing:
  rms(total) = 0.28310E+00    rms(broyden)= 0.28310E+00
  rms(prec ) = 0.29026E+00
  weight for this iteration     100.00

 eigenvalues of (default mixing * dielectric matrix)
  average eigenvalue GAMMA=   0.8816
  4.2247  2.3735  2.3735  0.9362  0.9362  0.7424  0.7424  0.4834  0.4834  0.0735
  0.4563  0.4563  0.4326  0.3451  0.2304  0.2621  0.2157  0.1004

 Free energy of the ion-electron system (eV)
  ---------------------------------------------------
  alpha Z        PSCENC =       262.47990408
  Ewald energy   TEWEN  =    139527.96361200
  -Hartree energ DENC   =   -151810.00069156
  -exchange      EXHF   =         0.00000000
  -V(xc)+E(xc)   XCENC  =        83.19639750
  PAW double counting   =     14812.87730335   -14386.08706438
  entropy T*S    EENTRO =        -0.03677688
  eigenvalues    EBANDS =      -823.30088910
  atomic energy  EATOM  =     12232.59423587
[...]
     26      -5.4285      2.00000
     27      -5.3661      2.00000
     28      -5.3477      2.00000
     29      -5.2934      2.00000
     30      -5.2830      2.00000
     31      -5.1860      2.00000
     32      -5.1113      2.00000
     33      -5.0501      2.00000
     34      -5.0441      2.00000
     35      -4.8380      2.00000
     36      -4.7774      2.00000
     37      -4.7276      2.00000
     38      -4.6713      2.00000
     39      -4.6377      2.00000
     40      -4.6169      2.00000
     41      -4.4698      2.00000
     42      -4.4204      2.00000
     43      -4.3665      2.00000
     44      -4.3105      2.00000
     45      -4.1696      2.00000
     46      -4.1249      2.00000
     47      -4.1168      2.00000
     48      -4.0702      2.00000
     49      -4.0301      2.00000
     50      -4.0049      2.00000
     51      -3.9363      2.00000
     52      -3.9223      2.00000
     53      -3.9075      2.00000
     54      -3.8652      2.00000
     55      -3.8489      2.00000
     56      -3.7688      2.00000
     57      -3.5343      2.00000
     58      -3.3302      2.00000
     59      -3.2924      2.00000
     60      -3.2324      2.00000
     61      -3.2269      2.00000
     62      -3.1573      2.00000
     63      -3.1296      2.00000
     64      -3.0528      2.00000
     65      -2.9050      2.00000
     66      -2.8418      2.00000
     67      -2.7971      2.00000
     68      -2.7725      2.00000
     69      -2.7336      2.00000
     70      -2.6742      2.00000
     71      -2.5821      2.00000
     72      -2.5658      2.00000
     73      -2.5219      2.00000
     74      -2.4275      2.00000
     75      -2.3395      2.00000
     76      -2.3258      2.00000
     77      -2.2922      2.00000
     78      -2.2645      2.00000
     79      -1.9785      2.00000
     80      -1.9723      2.00000
     81      -1.7361      2.00000
     82      -1.5336      2.00000
     83      -1.4033      2.00000
     84      -1.2588      1.99999
     85      -1.1991      1.99331
     86      -1.1540      1.84886
     87      -1.1337      1.61111
     88      -1.1086      1.11974
     89      -1.0792      0.49740
     90      -1.0710      0.36203
     91      -0.4977      0.00000
     92       0.6174      0.00000
     93       0.6414      0.00000
     94       0.6994      0.00000
     95       0.8189      0.00000
     96       1.0176      0.00000
     97       1.5448      0.00000
     98       1.7142      0.00000
     99       1.8451      0.00000
    100       2.4132      0.00000
    101       2.7563      0.00000
    102       3.1662      0.00000
    103       3.6021      0.00000
    104       4.0084      0.00000

 k-point     4 :       0.5000    0.5000    0.0000
  band No.  band energies     occupation 
      1     -25.4207      2.00000
      2     -11.4295      2.00000
      3      -8.9653      2.00000
      4      -8.3724      2.00000
      5      -8.3424      2.00000
      6      -8.1669      2.00000
      7      -8.1510      2.00000
      8      -7.4192      2.00000
      9      -7.3832      2.00000
     10      -6.7759      2.00000
     11      -6.6583      2.00000
     12      -6.5191      2.00000
     13      -6.5158      2.00000
     14      -6.4528      2.00000
     15      -6.3843      2.00000
     16      -6.3666      2.00000
     17      -6.3044      2.00000
     18      -6.2088      2.00000
     19      -6.1019      2.00000
     20      -5.8818      2.00000
     21      -5.8634      2.00000
     22      -5.7789      2.00000
     23      -5.7176      2.00000
     24      -5.6582      2.00000
     25      -5.6437      2.00000
     26      -5.4689      2.00000
     27      -5.4172      2.00000
     28      -5.3771      2.00000
     29      -5.3291      2.00000
     30      -5.2978      2.00000
     31      -5.2364      2.00000
     32      -5.0929      2.00000
     33      -5.0703      2.00000
     34      -5.0563      2.00000
     35      -4.9167      2.00000
     36      -4.8954      2.00000
     37      -4.8266      2.00000
     38      -4.7901      2.00000
     39      -4.7440      2.00000
     40      -4.6670      2.00000
     41      -4.5813      2.00000
     42      -4.4372      2.00000
     43      -4.4179      2.00000
     44      -4.4100      2.00000
     45      -4.2547      2.00000
     46      -4.1762      2.00000
     47      -4.1707      2.00000
     48      -4.1302      2.00000
     49      -4.0612      2.00000
     50      -3.9839      2.00000
     51      -3.9631      2.00000
     52      -3.9177      2.00000
     53      -3.8681      2.00000
     54      -3.7860      2.00000
     55      -3.7738      2.00000
     56      -3.6101      2.00000
     57      -3.5913      2.00000
     58      -3.3647      2.00000
     59      -3.2916      2.00000
     60      -3.2723      2.00000
     61      -3.2673      2.00000
     62      -3.1095      2.00000
     63      -3.1018      2.00000
     64      -2.9877      2.00000
     65      -2.8992      2.00000
     66      -2.8676      2.00000
     67      -2.8268      2.00000
     68      -2.8045      2.00000
     69      -2.7327      2.00000
     70      -2.6524      2.00000
     71      -2.6338      2.00000
     72      -2.6029      2.00000
     73      -2.5295      2.00000
     74      -2.4198      2.00000
     75      -2.3610      2.00000
     76      -2.3177      2.00000
     77      -2.2524      2.00000
     78      -2.2140      2.00000
     79      -1.9468      2.00000
     80      -1.9350      2.00000
     81      -1.6605      2.00000
     82      -1.5911      2.00000
     83      -1.4865      2.00000
     84      -1.3427      2.00000
     85      -1.2872      2.00000
     86      -1.2274      1.99955
     87      -1.2210      1.99914
     88      -0.9529      0.00002
     89      -0.9295      0.00000
     90      -0.8830      0.00000
     91      -0.1537      0.00000
     92       0.6212      0.00000
     93       0.6629      0.00000
     94       0.8683      0.00000
     95       0.9077      0.00000
     96       1.0503      0.00000
     97       1.6149      0.00000
     98       1.6822      0.00000
     99       1.8557      0.00000
    100       2.4102      0.00000
    101       2.6765      0.00000
    102       3.4017      0.00000
    103       3.6395      0.00000
    104       3.9980      0.00000


--------------------------------------------------------------------------------------------------------


 soft charge-density along one line, spin component            1
         0         1         2         3         4         5         6         7         8         9
 total charge-density along one line
 
 pseudopotential strength for first ion, spin component:            1
 -7.045  -0.007  -0.001  -0.013   0.001  -7.130  -0.007  -0.001
 -0.007  -6.875   0.001  -0.000  -0.007  -0.007  -6.964   0.001
 -0.001   0.001  -6.875  -0.002   0.005  -0.001   0.001  -6.965
 -0.013  -0.000  -0.002  -6.890  -0.007  -0.012  -0.000  -0.002
  0.001  -0.007   0.005  -0.007  -7.046   0.001  -0.007   0.005
 -7.130  -0.007  -0.001  -0.012   0.001  -7.199  -0.007  -0.001
 -0.007  -6.964   0.001  -0.000  -0.007  -0.007  -7.038   0.001
 -0.001   0.001  -6.965  -0.002   0.005  -0.001   0.001  -7.039
 -0.012  -0.000  -0.002  -6.979  -0.007  -0.012  -0.000  -0.002
  0.001  -0.007   0.005  -0.007  -7.131   0.001  -0.007   0.005
 -0.000   0.001  -0.047   0.004   0.002  -0.000   0.001  -0.046
 -0.000   0.002  -0.070   0.006   0.004  -0.000   0.002  -0.068
 -0.001  -0.003  -0.001   0.000  -0.001  -0.001  -0.002  -0.000
  0.000   0.001  -0.007  -0.000   0.000   0.000   0.001  -0.006
  0.001   0.000   0.001  -0.002  -0.001   0.001   0.000   0.001
 -0.001  -0.001  -0.001   0.000  -0.001  -0.001  -0.001  -0.001
  0.000   0.001  -0.006  -0.001   0.000   0.000   0.001  -0.006
  0.002   0.000   0.001  -0.001  -0.001   0.002   0.000   0.001
 total augmentation occupancy for first ion, spin component:            1
  2.492  -0.063  -0.018  -0.228   0.020  -1.516   0.030   0.005   0.043  -0.005   0.003  -0.001   0.007   0.002  -0.050   0.000
 -0.063   4.418   0.029  -0.008  -0.101   0.028  -2.400  -0.004  -0.001  -0.019  -0.027  -0.001  -0.228   0.011   0.000   0.010
 -0.018   0.029   3.928  -0.027   0.025   0.006  -0.004  -2.398   0.040  -0.014   0.940  -0.174  -0.014  -0.269  -0.004   0.001
 -0.228  -0.008  -0.027   4.124  -0.060   0.054  -0.001   0.040  -2.212   0.027  -0.069   0.013   0.005   0.024  -0.222  -0.001
  0.020  -0.101   0.025  -0.060   2.497  -0.005  -0.028  -0.014   0.028  -1.521  -0.006   0.009  -0.064  -0.008   0.006   0.005
 -1.516   0.028   0.006   0.054  -0.005   2.148  -0.005   0.004   0.079  -0.007  -0.002   0.001  -0.010   0.001   0.046   0.002
  0.030  -2.400  -0.004  -0.001  -0.028  -0.005   2.287  -0.011   0.008   0.112   0.024   0.001   0.227  -0.012   0.002  -0.017
  0.005  -0.004  -2.398   0.040  -0.014   0.004  -0.011   2.641  -0.051   0.005  -0.737   0.084   0.007   0.334   0.006  -0.000
  0.043  -0.001   0.040  -2.212   0.028   0.079   0.008  -0.051   2.168  -0.005   0.048  -0.004  -0.000  -0.023   0.227  -0.001
 -0.005  -0.019  -0.014   0.027  -1.521  -0.007   0.112   0.005  -0.005   2.147   0.004  -0.002   0.057   0.008  -0.011  -0.002
  0.003  -0.027   0.940  -0.069  -0.006  -0.002   0.024  -0.737   0.048   0.004   2.378  -0.504  -0.004   0.190  -0.016  -0.000
 -0.001  -0.001  -0.174   0.013   0.009   0.001   0.001   0.084  -0.004  -0.002  -0.504   0.125   0.001  -0.067   0.004   0.000
  0.007  -0.228  -0.014   0.005  -0.064  -0.010   0.227   0.007  -0.000   0.057  -0.004   0.001   0.233   0.007   0.001  -0.014
  0.002   0.011  -0.269   0.024  -0.008   0.001  -0.012   0.334  -0.023   0.008   0.190  -0.067   0.007   0.129   0.004  -0.000
 -0.050   0.000  -0.004  -0.222   0.006   0.046   0.002   0.006   0.227  -0.011  -0.016   0.004   0.001   0.004   0.242  -0.000
  0.000   0.010   0.001  -0.001   0.005   0.002  -0.017  -0.000  -0.001  -0.002  -0.000   0.000  -0.014  -0.000  -0.000   0.001
 -0.000   0.001  -0.001  -0.000  -0.001  -0.001   0.000  -0.015   0.001  -0.001  -0.022   0.007  -0.000  -0.008  -0.000   0.000
  0.005  -0.001   0.001   0.006   0.001  -0.003  -0.001  -0.004  -0.017   0.003   0.006  -0.001  -0.000  -0.000  -0.016   0.000


------------------------ aborting loop because EDIFF is reached ----------------------------------------





 total charge

# of ion       s       p       d       tot
------------------------------------------
    1        0.625   0.388   8.051   9.063
    2        0.629   0.387   8.047   9.063
    3        0.625   0.393   8.047   9.065
    4        0.629   0.387   8.046   9.063
    5        0.605   0.508   8.042   9.155
    6        0.600   0.497   8.060   9.158
    7        0.605   0.508   8.041   9.155
    8        0.606   0.508   8.042   9.156
    9        0.603   0.480   8.016   9.100
   10        0.605   0.478   8.023   9.106
   11        0.602   0.479   8.019   9.100
   12        0.605   0.480   8.022   9.106
   13        0.670   0.674   7.961   9.306
   14        0.607   0.365   8.053   9.025
   15        0.602   0.364   8.061   9.027
   16        0.608   0.365   8.050   9.023
   17        0.964   1.546   0.000   2.510
   18        1.647   3.555   0.000   5.202
--------------------------------------------------
tot         12.438  12.364 128.581 153.383
 
    CHARGE:  cpu time    0.1681: real time    0.1685
    FORLOC:  cpu time    0.0186: real time    0.0186
    FORNL :  cpu time    0.6014: real time    0.6076
    FORCOR:  cpu time    0.1378: real time    0.1379
    FORHAR:  cpu time    0.0533: real time    0.0534
    MIXING:  cpu time    0.0032: real time    0.0032
    OFIELD:  cpu time    0.0000: real time    0.0000

 VOLUME and BASIS-vectors are now :
 -----------------------------------------------------------------------------
  energy-cutoff  :      420.00
  volume of cell :     1013.36
      direct lattice vectors                 reciprocal lattice vectors
     5.633072000  0.000000000  0.215543000     0.177523028 -0.102293022  0.000000000
     2.812412000  4.880762000  0.215543000     0.000000000  0.204886040  0.000000000
     0.000000000  0.000000000 36.857938000    -0.001038144 -0.000599958  0.027131198

  length of vectors
     5.637194244  5.637194137 36.857938000     0.204886036  0.204886040  0.027157680


 FORCES acting on ions
    electron-ion (+dipol)            ewald-force                    non-local-force                 convergence-correction
 -----------------------------------------------------------------------------------------------
   -.118E+03 -.681E+02 0.308E+04   0.118E+03 0.681E+02 -.308E+04   -.641E-01 -.340E-01 -.176E+01   -.170E-01 -.927E-02 0.481E+00
   -.118E+03 -.680E+02 0.308E+04   0.118E+03 0.682E+02 -.308E+04   -.115E+00 -.180E+00 -.161E+01   -.239E-01 -.110E-01 0.479E+00
   -.118E+03 -.679E+02 0.308E+04   0.118E+03 0.682E+02 -.308E+04   -.736E-01 -.199E+00 -.150E+01   -.203E-01 -.138E-01 0.483E+00
   -.118E+03 -.679E+02 0.308E+04   0.118E+03 0.682E+02 -.308E+04   0.506E-03 -.202E+00 -.160E+01   -.139E-01 -.894E-02 0.480E+00
   -.432E+02 -.226E+02 0.116E+04   0.433E+02 0.230E+02 -.117E+04   -.169E+00 -.116E+00 -.135E+00   -.865E-01 -.431E-01 0.213E+01
   -.442E+02 -.248E+02 0.116E+04   0.443E+02 0.252E+02 -.116E+04   -.112E+00 -.195E+00 -.342E+00   -.829E-01 -.471E-01 0.212E+01
   -.441E+02 -.229E+02 0.116E+04   0.443E+02 0.233E+02 -.117E+04   -.123E+00 -.119E+00 -.153E+00   -.766E-01 -.448E-01 0.213E+01
   -.434E+02 -.237E+02 0.117E+04   0.436E+02 0.241E+02 -.117E+04   -.117E+00 -.136E+00 -.303E+00   -.802E-01 -.521E-01 0.213E+01
   0.281E+02 0.132E+02 -.751E+03   -.280E+02 -.133E+02 0.748E+03   0.111E-01 0.228E+00 0.336E+00   -.102E+00 -.544E-01 0.253E+01
   0.381E+02 0.166E+02 -.759E+03   -.374E+02 -.162E+02 0.757E+03   -.499E+00 -.295E+00 -.610E-01   -.827E-01 -.527E-01 0.253E+01
   0.292E+02 0.209E+02 -.749E+03   -.291E+02 -.207E+02 0.746E+03   -.314E-01 -.131E+00 0.637E+00   -.909E-01 -.455E-01 0.252E+01
   0.208E+02 0.151E+02 -.756E+03   -.211E+02 -.148E+02 0.753E+03   0.450E+00 -.163E+00 0.969E-01   -.110E+00 -.625E-01 0.253E+01
   0.979E+02 0.517E+02 -.254E+04   -.980E+02 -.520E+02 0.255E+04   0.565E-01 0.282E+00 -.381E+01   -.374E-01 -.252E-01 0.747E+00
   0.101E+03 0.590E+02 -.265E+04   -.101E+03 -.593E+02 0.265E+04   0.198E+00 0.329E+00 0.910E+00   -.252E-01 -.124E-01 0.788E+00
   0.995E+02 0.547E+02 -.265E+04   -.995E+02 -.551E+02 0.264E+04   0.998E-01 0.543E+00 0.130E+01   -.313E-01 -.113E-01 0.792E+00
   0.996E+02 0.599E+02 -.265E+04   -.997E+02 -.601E+02 0.265E+04   0.149E+00 0.338E+00 0.911E+00   -.353E-01 -.130E-01 0.790E+00
   0.456E+02 0.298E+02 -.124E+04   -.450E+02 -.296E+02 0.122E+04   -.478E+00 -.333E+00 0.150E+02   0.857E-02 0.141E-01 -.213E+00
   0.863E+02 0.467E+02 -.223E+04   -.888E+02 -.472E+02 0.229E+04   0.235E+01 0.657E+00 -.621E+02   0.215E-01 0.752E-01 -.259E+00
 -----------------------------------------------------------------------------------------------
   -.510E+00 0.187E+01 0.289E+02   -.711E-13 0.782E-13 0.455E-12   0.153E+01 0.274E+00 -.542E+02   -.886E+00 -.418E+00 0.232E+02
 
 
 POSITION                                       TOTAL-FORCE (eV/Angst)
 -----------------------------------------------------------------------------------
      0.48351      0.68636     15.00722         0.098578     -0.143459     -0.653081
      1.88972      3.12674     15.11499         0.042050     -0.019517     -0.682907
      3.30005      0.68636     15.11499         0.099037     -0.085584     -0.548315
      4.70625      3.12674     15.22276         0.128206     -0.012553     -0.661155
      1.80312      1.44898     17.37819        -0.111704      0.143528      0.519505
      3.20933      3.88936     17.48597        -0.092552      0.024591      0.500408
      4.61966      1.44898     17.48597        -0.046064      0.151319      0.511002
      6.02586      3.88936     17.59374        -0.085476      0.132005      0.601655
      3.07766      1.99359     19.77651         0.019953      0.014883      0.034915
      4.50500      4.43720     19.90062         0.031818     -0.026763      0.118292
      5.89341      1.99285     19.88241         0.003284     -0.066995      0.035123
      7.28615      4.43096     20.00037        -0.000110     -0.082174      0.079714
      2.91900      0.04155     22.25057        -0.087289     -0.085679      0.240843
      4.32452      2.49437     22.28250         0.005295      0.007364      0.023031
      0.10429      0.05191     22.06414         0.000207      0.048796      0.033429
      1.51146      2.49417     22.17477         0.023852      0.000396      0.047640
      2.86198      0.00727     24.14288         0.179080     -0.127186      0.136695
      2.81169     -0.00357     25.29731        -0.208165      0.127028     -0.336792
 -----------------------------------------------------------------------------------
    total drift:                                0.134541      1.730167     -2.086612


--------------------------------------------------------------------------------------------------------



  FREE ENERGIE OF THE ION-ELECTRON SYSTEM (eV)
  ---------------------------------------------------
  free  energy   TOTEN  =      -100.47505397 eV

  energy  without entropy=     -100.42600741  energy(sigma->0) =     -100.45053069
 
 d Force = 0.8148702E-03[ 0.144E-03, 0.149E-02]  d Energy = 0.4780655E-03 0.337E-03
 d Force = 0.2400883E+01[ 0.240E+01, 0.240E+01]  d Ewald  = 0.2400883E+01 0.832E-06


--------------------------------------------------------------------------------------------------------


    POTLOK:  cpu time    0.1333: real time    0.1336


--------------------------------------------------------------------------------------------------------




--------------------------------------------------------------------------------------------------------


  
 reached required accuracy - stopping structural energy minimisation
     LOOP+:  cpu time   14.5528: real time   14.6359
    4ORBIT:  cpu time    0.0000: real time    0.0000



 total charge

# of ion       s       p       d       tot
------------------------------------------
    1        0.625   0.388   8.051   9.063
    2        0.629   0.387   8.047   9.063
    3        0.625   0.393   8.047   9.065
    4        0.629   0.387   8.046   9.063
    5        0.605   0.508   8.042   9.155
    6        0.600   0.497   8.060   9.158
    7        0.605   0.508   8.041   9.155
    8        0.606   0.508   8.042   9.156
    9        0.603   0.480   8.016   9.100
   10        0.605   0.478   8.023   9.106
   11        0.602   0.479   8.019   9.100
   12        0.605   0.480   8.022   9.106
   13        0.670   0.674   7.961   9.306
   14        0.607   0.365   8.053   9.025
   15        0.602   0.364   8.061   9.027
   16        0.608   0.365   8.050   9.023
   17        0.964   1.546   0.000   2.510
   18        1.647   3.555   0.000   5.202
--------------------------------------------------
tot         12.438  12.364 128.581 153.383
 

 total amount of memory used by VASP MPI-rank0    51205. kBytes
=======================================================================

   base      :      30000. kBytes
   nonlr-proj:       1714. kBytes
   fftplans  :       3961. kBytes
   grid      :       7034. kBytes
   one-center:         77. kBytes
   wavefun   :       8419. kBytes
 
  
  
 General timing and accounting informations for this job:
 ========================================================
  
                  Total CPU time used (sec):      980.440
                            User time (sec):      970.753
                          System time (sec):        9.687
                         Elapsed time (sec):      991.667
  
                   Maximum memory used (kb):       97620.
                   Average memory used (kb):          N/A
  
                          Minor page faults:       123580
                          Major page faults:        47139
                 Voluntary context switches:         6060
