<?xml version="1.0" encoding="ISO-8859-1"?>
<modeling>
 <generator>
  <i name="program" type="string">vasp </i>
  <i name="version" type="string">6.2.0  </i>
  <i name="subversion" type="string">18Jan21 (build Feb  1 2022 01:28:57) complex                          parallel </i>
  <i name="platform" type="string">LinuxPGI </i>
  <i name="date" type="string">2022 05 17 </i>
  <i name="time" type="string">23:23:00 </i>
 </generator>
 <incar>
  <i type="string" name="PREC">Normal</i>
  <i type="string" name="ALGO">38</i>
  <i type="int" name="ISPIN">     1</i>
  <i name="AMIX">      0.20000000</i>
  <i name="BMIX">      0.00100000</i>
  <i name="AMIN">      0.01000000</i>
  <i type="int" name="NELM">    60</i>
  <i type="int" name="NELMIN">     4</i>
  <i type="int" name="IBRION">     2</i>
  <i name="EDIFF">      0.00010000</i>
  <i name="EDIFFG">      0.00100000</i>
  <i type="int" name="NSW">   300</i>
  <i type="int" name="ISIF">     0</i>
  <i type="int" name="ISYM">     0</i>
  <i name="SYMPREC">      0.00001000</i>
  <i name="ENCUT">    420.00000000</i>
  <i type="logical" name="LREAL"> T  </i>
  <i type="int" name="ISMEAR">     0</i>
  <i name="SIGMA">      0.05000000</i>
  <i type="logical" name="LWAVE"> F  </i>
  <i type="logical" name="LVTOT"> F  </i>
  <i type="int" name="LORBIT">    11</i>
  <i type="logical" name="LASPH"> F  </i>
  <i type="string" name="GGA">RP</i>
 </incar>
 <primitive_cell>
  <structure name="primitive_cell" >
   <crystal>
    <varray name="basis" >
     <v>       5.63307200       0.00000000       0.21554300 </v>
     <v>       2.81241200       4.88076200       0.21554300 </v>
     <v>       0.00000000       0.00000000      36.85793800 </v>
    </varray>
    <i name="volume">   1013.36049145 </i>
    <varray name="rec_basis" >
     <v>       0.17752303      -0.10229302       0.00000000 </v>
     <v>       0.00000000       0.20488604       0.00000000 </v>
     <v>      -0.00103814      -0.00059996       0.02713120 </v>
    </varray>
   </crystal>
   <varray name="positions" >
    <v>       0.01562500       0.14062500       0.40625000 </v>
    <v>       0.01562500       0.64062500       0.40625000 </v>
    <v>       0.51562500       0.14062500       0.40625000 </v>
    <v>       0.51562500       0.64062500       0.40625000 </v>
    <v>       0.17187500       0.29687500       0.46875000 </v>
    <v>       0.17187500       0.79687500       0.46875000 </v>
    <v>       0.67187500       0.29687500       0.46875000 </v>
    <v>       0.67187500       0.79687500       0.46875000 </v>
    <v>       0.34279200       0.40917300       0.53212600 </v>
    <v>       0.34280300       0.90913800       0.53213200 </v>
    <v>       0.84276600       0.40926100       0.53214000 </v>
    <v>       0.84287500       0.90923400       0.53213200 </v>
    <v>       0.51315900       0.01054900       0.59867100 </v>
    <v>       0.51312600       0.51050900       0.59868400 </v>
    <v>       0.01312100       0.01049300       0.59868600 </v>
    <v>       0.01311400       0.51052300       0.59868100 </v>
    <v>       0.50410600       0.00149600       0.65298600 </v>
    <v>       0.49890000       0.99628900       0.68422700 </v>
   </varray>
  </structure>
  <varray name="primitive_index" >
   <v type="int" >        1 </v>
   <v type="int" >        2 </v>
   <v type="int" >        3 </v>
   <v type="int" >        4 </v>
   <v type="int" >        5 </v>
   <v type="int" >        6 </v>
   <v type="int" >        7 </v>
   <v type="int" >        8 </v>
   <v type="int" >        9 </v>
   <v type="int" >       10 </v>
   <v type="int" >       11 </v>
   <v type="int" >       12 </v>
   <v type="int" >       13 </v>
   <v type="int" >       14 </v>
   <v type="int" >       15 </v>
   <v type="int" >       16 </v>
   <v type="int" >       17 </v>
   <v type="int" >       18 </v>
  </varray>
 </primitive_cell>
 <kpoints>
  <generation param="Gamma">
   <v type="int" name="divisions">       2        2        1 </v>
   <v name="usershift">      0.00000000       0.00000000       0.00000000 </v>
   <v name="genvec1">      0.50000000       0.00000000       0.00000000 </v>
   <v name="genvec2">      0.00000000       0.50000000       0.00000000 </v>
   <v name="genvec3">      0.00000000       0.00000000       1.00000000 </v>
   <v name="shift">      0.00000000       0.00000000       0.00000000 </v>
  </generation>
  <varray name="kpointlist" >
   <v>       0.00000000       0.00000000       0.00000000 </v>
   <v>       0.50000000       0.00000000       0.00000000 </v>
   <v>       0.00000000       0.50000000       0.00000000 </v>
   <v>       0.50000000       0.50000000       0.00000000 </v>
  </varray>
  <varray name="weights" >
   <v>       0.25000000 </v>
   <v>       0.25000000 </v>
   <v>       0.25000000 </v>
   <v>       0.25000000 </v>
  </varray>
 </kpoints>
 <parameters>
  <separator name="general" >
   <i type="string" name="SYSTEM">unknown system</i>
   <i type="logical" name="LCOMPAT"> F  </i>
  </separator>
  <separator name="electronic" >
   <i type="string" name="PREC">normal</i>
   <i name="ENMAX">    420.00000000</i>
   <i name="ENAUG">    644.87300000</i>
   <i name="EDIFF">      0.00010000</i>
   <i type="int" name="IALGO">    38</i>
   <i type="int" name="IWAVPR">    11</i>
   <i type="int" name="NBANDS">   104</i>
   <i type="int" name="NBANDSLOW">    -1</i>
   <i type="int" name="NBANDSHIGH">    -1</i>
   <i name="NELECT">    170.00000000</i>
   <i type="int" name="TURBO">     0</i>
   <i type="int" name="IRESTART">     0</i>
   <i type="int" name="NREBOOT">     0</i>
   <i type="int" name="NMIN">     0</i>
   <i name="EREF">      0.00000000</i>
   <separator name="electronic smearing" >
    <i type="int" name="ISMEAR">     0</i>
    <i name="SIGMA">      0.05000000</i>
    <i name="KSPACING">      0.50000000</i>
    <i type="logical" name="KGAMMA"> T  </i>
    <i type="logical" name="KBLOWUP"> T  </i>
   </separator>
   <separator name="electronic projectors" >
    <i type="logical" name="LREAL"> T  </i>
    <v name="ROPT">      0.00000000      0.00000000      0.00000000</v>
    <i type="int" name="LMAXPAW">  -100</i>
    <i type="int" name="LMAXMIX">     2</i>
    <i type="logical" name="NLSPLINE"> F  </i>
   </separator>
   <separator name="electronic startup" >
    <i type="int" name="ISTART">     0</i>
    <i type="int" name="ICHARG">     2</i>
    <i type="int" name="INIWAV">     1</i>
   </separator>
   <separator name="electronic spin" >
    <i type="int" name="ISPIN">     1</i>
    <i type="logical" name="LNONCOLLINEAR"> F  </i>
    <v name="MAGMOM">      1.00000000      1.00000000      1.00000000      1.00000000      1.00000000      1.00000000      1.00000000      1.00000000      1.00000000      1.00000000      1.00000000      1.00000000      1.00000000      1.00000000      1.00000000      1.00000000      1.00000000      1.00000000</v>
    <i name="NUPDOWN">     -1.00000000</i>
    <i type="logical" name="LSORBIT"> F  </i>
    <v name="SAXIS">      0.00000000      0.00000000      1.00000000</v>
    <i type="logical" name="LSPIRAL"> F  </i>
    <v name="QSPIRAL">      0.00000000      0.00000000      0.00000000</v>
    <i type="logical" name="LZEROZ"> F  </i>
   </separator>
   <separator name="electronic exchange-correlation" >
    <i type="logical" name="LASPH"> F  </i>
    <i type="logical" name="LMETAGGA"> F  </i>
   </separator>
   <separator name="electronic convergence" >
    <i type="int" name="NELM">    60</i>
    <i type="int" name="NELMDL">    -5</i>
    <i type="int" name="NELMIN">     4</i>
    <i name="ENINI">    420.00000000</i>
    <separator name="electronic convergence detail" >
     <i type="logical" name="LDIAG"> T  </i>
     <i type="logical" name="LSUBROT"> F  </i>
     <i name="WEIMIN">      0.00100000</i>
     <i name="EBREAK">      0.00000024</i>
     <i name="DEPER">      0.30000000</i>
     <i type="int" name="NRMM">     4</i>
     <i name="TIME">      0.40000000</i>
    </separator>
   </separator>
   <separator name="electronic mixer" >
    <i name="AMIX">      0.20000000</i>
    <i name="BMIX">      0.00100000</i>
    <i name="AMIN">      0.01000000</i>
    <i name="AMIX_MAG">      0.80000000</i>
    <i name="BMIX_MAG">      0.00100000</i>
    <separator name="electronic mixer details" >
     <i type="int" name="IMIX">     4</i>
     <i type="logical" name="MIXFIRST"> F  </i>
     <i type="int" name="MAXMIX">   -45</i>
     <i name="WC">    100.00000000</i>
     <i type="int" name="INIMIX">     1</i>
     <i type="int" name="MIXPRE">     1</i>
     <i type="int" name="MREMOVE">     5</i>
    </separator>
   </separator>
   <separator name="electronic dipolcorrection" >
    <i type="logical" name="LDIPOL"> F  </i>
    <i type="logical" name="LMONO"> F  </i>
    <i type="int" name="IDIPOL">     0</i>
    <i name="EPSILON">      1.00000000</i>
    <v name="DIPOL">   -100.00000000   -100.00000000   -100.00000000</v>
    <i name="EFIELD">      0.00000000</i>
   </separator>
  </separator>
  <separator name="grids" >
   <i type="int" name="NGX">    28</i>
   <i type="int" name="NGY">    28</i>
   <i type="int" name="NGZ">   192</i>
   <i type="int" name="NGXF">    56</i>
   <i type="int" name="NGYF">    56</i>
   <i type="int" name="NGZF">   384</i>
   <i type="logical" name="ADDGRID"> F  </i>
  </separator>
  <separator name="ionic" >
   <i type="int" name="NSW">   300</i>
   <i type="int" name="IBRION">     2</i>
   <i type="int" name="MDALGO">     0</i>
   <i type="int" name="ISIF">     0</i>
   <i name="PSTRESS">      0.00000000</i>
   <i name="EDIFFG">      0.00100000</i>
   <i type="int" name="NFREE">     1</i>
   <i name="POTIM">      0.50000000</i>
   <i name="SMASS">     -3.00000000</i>
   <i name="SCALEE">      1.00000000</i>
  </separator>
  <separator name="ionic md" >
   <i name="TEBEG">      0.00010000</i>
   <i name="TEEND">      0.00010000</i>
   <i type="int" name="NBLOCK">     1</i>
   <i type="int" name="KBLOCK">   300</i>
   <i type="int" name="NPACO">   256</i>
   <i name="APACO">     16.00000000</i>
  </separator>
  <separator name="symmetry" >
   <i type="int" name="ISYM">     0</i>
   <i name="SYMPREC">      0.00001000</i>
  </separator>
  <separator name="dos" >
   <i type="int" name="LORBIT">    11</i>
   <v name="RWIGS">     -1.00000000     -1.00000000     -1.00000000</v>
   <i type="int" name="NEDOS">   301</i>
   <i name="EMIN">     10.00000000</i>
   <i name="EMAX">    -10.00000000</i>
   <i name="EFERMI">      0.00000000</i>
  </separator>
  <separator name="writing" >
   <i type="int" name="NWRITE">     2</i>
   <i type="logical" name="LWAVE"> F  </i>
   <i type="logical" name="LDOWNSAMPLE"> F  </i>
   <i type="logical" name="LCHARG"> T  </i>
   <i type="logical" name="LPARD"> F  </i>
   <i type="logical" name="LVTOT"> F  </i>
   <i type="logical" name="LVHAR"> F  </i>
   <i type="logical" name="LELF"> F  </i>
   <i type="logical" name="LOPTICS"> F  </i>
   <v name="STM">      0.00000000      0.00000000      0.00000000      0.00000000      0.00000000      0.00000000      0.00000000</v>
  </separator>
  <separator name="performance" >
   <i type="int" name="NPAR">     4</i>
   <i type="int" name="NSIM">     4</i>
   <i type="int" name="NBLK">    -1</i>
   <i type="logical" name="LPLANE"> T  </i>
   <i type="logical" name="LSCALAPACK"> T  </i>
   <i type="logical" name="LSCAAWARE"> F  </i>
   <i type="logical" name="LSCALU"> F  </i>
   <i type="logical" name="LASYNC"> F  </i>
   <i type="logical" name="LORBITALREAL"> F  </i>
  </separator>
  <separator name="miscellaneous" >
   <i type="int" name="IDIOT">     3</i>
   <i type="int" name="PHON_NSTRUCT">    -1</i>
   <i type="logical" name="LMUSIC"> F  </i>
   <v name="POMASS">    195.08000000     12.01100000     16.00000000</v>
   <v name="DARWINR">      0.00000000      0.00000000      0.00000000</v>
   <v name="DARWINV">      1.00000000      1.00000000      1.00000000</v>
   <i type="logical" name="LCORR"> T  </i>
  </separator>
  <i type="logical" name="GGA_COMPAT"> T  </i>
  <i type="logical" name="LBERRY"> F  </i>
  <i type="int" name="ICORELEVEL">     0</i>
  <i type="logical" name="LDAU"> F  </i>
  <i type="int" name="I_CONSTRAINED_M">     0</i>
  <separator name="electronic exchange-correlation" >
   <i type="string" name="GGA">RP</i>
   <i type="int" name="VOSKOWN">     0</i>
   <i type="logical" name="LHFCALC"> F  </i>
   <i type="string" name="PRECFOCK"></i>
   <i type="logical" name="LSYMGRAD"> F  </i>
   <i type="logical" name="LHFONE"> F  </i>
   <i type="logical" name="LRHFCALC"> F  </i>
   <i type="logical" name="LTHOMAS"> F  </i>
   <i type="logical" name="LMODELHF"> F  </i>
   <i type="logical" name="LFOCKACE"> F  </i>
   <i name="ENCUT4O">     -1.00000000</i>
   <i type="int" name="EXXOEP">     0</i>
   <i type="int" name="FOURORBIT">     0</i>
   <i name="AEXX">      0.00000000</i>
   <i name="HFALPHA">      0.00000000</i>
   <i name="MCALPHA">      0.00000000</i>
   <i name="ALDAX">      1.00000000</i>
   <i name="AGGAX">      1.00000000</i>
   <i name="ALDAC">      1.00000000</i>
   <i name="AGGAC">      1.00000000</i>
   <i type="int" name="NKREDX">     1</i>
   <i type="int" name="NKREDY">     1</i>
   <i type="int" name="NKREDZ">     1</i>
   <i type="logical" name="SHIFTRED"> F  </i>
   <i type="logical" name="ODDONLY"> F  </i>
   <i type="logical" name="EVENONLY"> F  </i>
   <i type="int" name="LMAXFOCK">     0</i>
   <i type="int" name="NMAXFOCKAE">     0</i>
   <i type="logical" name="LFOCKAEDFT"> F  </i>
   <i name="HFSCREEN">      0.00000000</i>
   <i name="HFSCREENC">      0.00000000</i>
   <i type="int" name="NBANDSGWLOW">     0</i>
  </separator>
  <separator name="vdW DFT" >
   <i type="logical" name="LUSE_VDW"> F  </i>
   <i name="Zab_VDW">     -0.84910000</i>
   <i name="PARAM1">      0.12340000</i>
   <i name="PARAM2">      1.00000000</i>
   <i name="PARAM3">      0.00000000</i>
  </separator>
  <separator name="model GW" >
   <i type="int" name="MODEL_GW">     0</i>
   <i name="MODEL_EPS0">     33.77868305</i>
   <i name="MODEL_ALPHA">      1.00000000</i>
  </separator>
  <separator name="linear response parameters" >
   <i type="logical" name="LEPSILON"> F  </i>
   <i type="logical" name="LRPA"> F  </i>
   <i type="logical" name="LNABLA"> F  </i>
   <i type="logical" name="LVEL"> F  </i>
   <i type="int" name="KINTER">     0</i>
   <i name="CSHIFT">      0.10000000</i>
   <i name="OMEGAMAX">     -1.00000000</i>
   <i name="DEG_THRESHOLD">      0.00200000</i>
   <i name="RTIME">     -0.10000000</i>
   <i name="WPLASMAI">      0.00000000</i>
   <v name="DFIELD">      0.00000000      0.00000000      0.00000000</v>
   <v name="WPLASMA">      0.00000000      0.00000000      0.00000000      0.00000000      0.00000000      0.00000000      0.00000000      0.00000000      0.00000000</v>
  </separator>
  <separator name="orbital magnetization" >
   <i type="logical" name="NUCIND"> F  </i>
   <v name="MAGPOS">      0.00000000      0.00000000      0.00000000</v>
   <i type="logical" name="LNICSALL"> T  </i>
   <i type="logical" name="ORBITALMAG"> F  </i>
   <i type="logical" name="LMAGBLOCH"> F  </i>
   <i type="logical" name="LCHIMAG"> F  </i>
   <i type="logical" name="LGAUGE"> T  </i>
   <i type="int" name="MAGATOM">     0</i>
   <v name="MAGDIPOL">      0.00000000      0.00000000      0.00000000</v>
   <v name="AVECCONST">      0.00000000      0.00000000      0.00000000</v>
  </separator>
  <separator name="response functions" >
   <i type="logical" name="LFINITE_TEMPERATURE"> F  </i>
   <i type="logical" name="LADDER"> F  </i>
   <i type="logical" name="LRPAFORCE"> F  </i>
   <i type="logical" name="LFXC"> F  </i>
   <i type="logical" name="LHARTREE"> T  </i>
   <i type="int" name="IBSE">     0</i>
   <v type="int" name="KPOINT">    -1     0     0     0</v>
   <i type="logical" name="LTCTC"> F  </i>
   <i type="logical" name="LTCTE"> F  </i>
   <i type="logical" name="LTETE"> F  </i>
   <i type="logical" name="LTRIPLET"> F  </i>
   <i type="logical" name="LFXCEPS"> F  </i>
   <i type="logical" name="LFXHEG"> F  </i>
   <i type="int" name="NATURALO">     2</i>
   <i type="logical" name="LHOLEGF"> F  </i>
   <i type="logical" name="L2ORDER"> F  </i>
   <i type="logical" name="LDMP1"> F  </i>
   <i type="logical" name="LMP2LT"> F  </i>
   <i type="logical" name="LSMP2LT"> F  </i>
   <i type="logical" name="LGWLF"> F  </i>
   <i name="ENCUTGW">     -2.00000000</i>
   <i name="ENCUTGWSOFT">     -2.00000000</i>
   <i name="ENCUTLF">     -1.00000000</i>
   <i type="logical" name="LESF_SPLINES"> F  </i>
   <i type="int" name="LMAXMP2">    -1</i>
   <i name="SCISSOR">      0.00000000</i>
   <i type="int" name="NOMEGA">     0</i>
   <i type="int" name="NOMEGAR">     0</i>
   <i type="int" name="NBANDSGW">    -1</i>
   <i type="int" name="NBANDSO">    -1</i>
   <i type="int" name="NBANDSV">    -1</i>
   <i type="int" name="NELM">    60</i>
   <i type="int" name="NELMHF">     1</i>
   <i type="int" name="DIM">     3</i>
   <i type="int" name="IESPILON">     4</i>
   <i type="int" name="ANTIRES">     0</i>
   <i name="OMEGAMAX">    -30.00000000</i>
   <i name="OMEGAMIN">    -30.00000000</i>
   <i name="OMEGATL">   -200.00000000</i>
   <i type="int" name="OMEGAGRID">     0</i>
   <i name="CSHIFT">     -0.10000000</i>
   <i type="logical" name="LSELFENERGY"> F  </i>
   <i type="logical" name="LSPECTRAL"> F  </i>
   <i type="logical" name="LSPECTRALGW"> F  </i>
   <i type="logical" name="LSINGLES"> F  </i>
   <i type="logical" name="LFERMIGW"> F  </i>
   <i type="logical" name="ODDONLYGW"> F  </i>
   <i type="logical" name="EVENONLYGW"> F  </i>
   <i type="int" name="NKREDLFX">     1</i>
   <i type="int" name="NKREDLFY">     1</i>
   <i type="int" name="NKREDLFZ">     1</i>
   <i type="int" name="MAXMEM">  2800</i>
   <i type="int" name="TELESCOPE">     0</i>
   <i type="int" name="NTAUPAR">    -1</i>
   <i type="int" name="NOMEGAPAR">    -1</i>
   <i name="DAMP_NEWTON">      0.80000001</i>
   <i name="LAMBDA">      1.00000000</i>
  </separator>
  <separator name="External order field" >
   <i name="OFIELD_KAPPA">      0.00000000</i>
   <v name="OFIELD_K">      0.00000000      0.00000000      0.00000000</v>
   <i name="OFIELD_Q6_NEAR">      0.00000000</i>
   <i name="OFIELD_Q6_FAR">      0.00000000</i>
   <i name="OFIELD_A">      0.00000000</i>
  </separator>
 </parameters>
 <atominfo>
  <atoms>      18 </atoms>
  <types>       3 </types>
  <array name="atoms" >
   <dimension dim="1">ion</dimension>
   <field type="string">element</field>
   <field type="int">atomtype</field>
   <set>
    <rc><c>Pt</c><c>   1</c></rc>
    <rc><c>Pt</c><c>   1</c></rc>
    <rc><c>Pt</c><c>   1</c></rc>
    <rc><c>Pt</c><c>   1</c></rc>
    <rc><c>Pt</c><c>   1</c></rc>
    <rc><c>Pt</c><c>   1</c></rc>
    <rc><c>Pt</c><c>   1</c></rc>
    <rc><c>Pt</c><c>   1</c></rc>
    <rc><c>Pt</c><c>   1</c></rc>
    <rc><c>Pt</c><c>   1</c></rc>
    <rc><c>Pt</c><c>   1</c></rc>
    <rc><c>Pt</c><c>   1</c></rc>
    <rc><c>Pt</c><c>   1</c></rc>
    <rc><c>Pt</c><c>   1</c></rc>
    <rc><c>Pt</c><c>   1</c></rc>
    <rc><c>Pt</c><c>   1</c></rc>
    <rc><c>C </c><c>   2</c></rc>
    <rc><c>O </c><c>   3</c></rc>
   </set>
  </array>
  <array name="atomtypes" >
   <dimension dim="1">type</dimension>
   <field type="int">atomspertype</field>
   <field type="string">element</field>
   <field>mass</field>
   <field>valence</field>
   <field type="string">pseudopotential</field>
   <set>
    <rc><c>  16</c><c>Pt</c><c>    195.08000000</c><c>     10.00000000</c><c>  PAW_PBE Pt 04Feb2005                  </c></rc>
    <rc><c>   1</c><c>C </c><c>     12.01100000</c><c>      4.00000000</c><c>  PAW_PBE C 08Apr2002                   </c></rc>
    <rc><c>   1</c><c>O </c><c>     16.00000000</c><c>      6.00000000</c><c>  PAW_PBE O 08Apr2002                   </c></rc>
   </set>
  </array>
 </atominfo>
 <structure name="initialpos" >
  <crystal>
   <varray name="basis" >
    <v>       5.63307200       0.00000000       0.21554300 </v>
    <v>       2.81241200       4.88076200       0.21554300 </v>
    <v>       0.00000000       0.00000000      36.85793800 </v>
   </varray>
   <i name="volume">   1013.36049145 </i>
   <varray name="rec_basis" >
    <v>       0.17752303      -0.10229302       0.00000000 </v>
    <v>       0.00000000       0.20488604       0.00000000 </v>
    <v>      -0.00103814      -0.00059996       0.02713120 </v>
   </varray>
  </crystal>
  <varray name="positions" >
   <v>       0.01562500       0.14062500       0.40625000 </v>
   <v>       0.01562500       0.64062500       0.40625000 </v>
   <v>       0.51562500       0.14062500       0.40625000 </v>
   <v>       0.51562500       0.64062500       0.40625000 </v>
   <v>       0.17187500       0.29687500       0.46875000 </v>
   <v>       0.17187500       0.79687500       0.46875000 </v>
   <v>       0.67187500       0.29687500       0.46875000 </v>
   <v>       0.67187500       0.79687500       0.46875000 </v>
   <v>       0.34279200       0.40917300       0.53212600 </v>
   <v>       0.34280300       0.90913800       0.53213200 </v>
   <v>       0.84276600       0.40926100       0.53214000 </v>
   <v>       0.84287500       0.90923400       0.53213200 </v>
   <v>       0.51315900       0.01054900       0.59867100 </v>
   <v>       0.51312600       0.51050900       0.59868400 </v>
   <v>       0.01312100       0.01049300       0.59868600 </v>
   <v>       0.01311400       0.51052300       0.59868100 </v>
   <v>       0.50410600       0.00149600       0.65298600 </v>
   <v>       0.49890000       0.99628900       0.68422700 </v>
  </varray>
  <varray name="selective"  type="logical" >
   <v type="logical" >  F  F  F </v>
   <v type="logical" >  F  F  F </v>
   <v type="logical" >  F  F  F </v>
   <v type="logical" >  F  F  F </v>
   <v type="logical" >  F  F  F </v>
   <v type="logical" >  F  F  F </v>
   <v type="logical" >  F  F  F </v>
   <v type="logical" >  F  F  F </v>
   <v type="logical" >  T  T  T </v>
   <v type="logical" >  T  T  T </v>
   <v type="logical" >  T  T  T </v>
   <v type="logical" >  T  T  T </v>
   <v type="logical" >  T  T  T </v>
   <v type="logical" >  T  T  T </v>
   <v type="logical" >  T  T  T </v>
   <v type="logical" >  T  T  T </v>
   <v type="logical" >  T  T  T </v>
   <v type="logical" >  T  T  T </v>
  </varray>
  <nose>
   <v>      -3.00000000       0.00000000       0.00010000       0.00010000 </v>
  </nose>
 </structure>
 <calculation>
  <scstep>
   <time name="dav">    2.54    2.54</time>
   <time name="total">    2.68    2.68</time>
   <energy>
    <i name="alphaZ">    262.47990408 </i>
    <i name="ewald"> 139527.96361200 </i>
    <i name="hartreedc">-151938.42510784 </i>
    <i name="XCdc">     86.78599674 </i>
    <i name="pawpsdc">  11602.90403888 </i>
    <i name="pawaedc"> -11137.02028253 </i>
    <i name="eentropy">     -0.01850550 </i>
    <i name="bandstr">    507.88004949 </i>
    <i name="atom">  12232.59423587 </i>
    <i name="e_fr_energy">   1145.14394118 </i>
    <i name="e_wo_entrp">   1145.16244668 </i>
    <i name="e_0_energy">   1145.15319393 </i>
   </energy>
  </scstep>
  <scstep>
   <time name="dav">    2.95    2.96</time>
   <time name="total">    2.95    2.96</time>
   <energy>
    <i name="e_fr_energy">      2.31349040 </i>
    <i name="e_wo_entrp">      2.32666481 </i>
    <i name="e_0_energy">      2.32007760 </i>
   </energy>
  </scstep>
  <scstep>
   <time name="dav">    2.75    2.75</time>
   <time name="total">    2.75    2.75</time>
   <energy>
    <i name="e_fr_energy">   -102.78936350 </i>
    <i name="e_wo_entrp">   -102.77502784 </i>
    <i name="e_0_energy">   -102.78219567 </i>
   </energy>
  </scstep>
  <scstep>
   <time name="dav">    3.10    3.11</time>
   <time name="total">    3.10    3.11</time>
   <energy>
    <i name="e_fr_energy">   -106.92022979 </i>
    <i name="e_wo_entrp">   -106.89742801 </i>
    <i name="e_0_energy">   -106.90882890 </i>
   </energy>
  </scstep>
  <scstep>
   <time name="dav">    3.03    3.04</time>
   <time name="total">    3.19    3.21</time>
   <energy>
    <i name="e_fr_energy">   -107.03084481 </i>
    <i name="e_wo_entrp">   -107.00785219 </i>
    <i name="e_0_energy">   -107.01934850 </i>
   </energy>
  </scstep>
  <scstep>
   <time name="dav">    2.72    2.73</time>
   <time name="total">    3.03    3.05</time>
   <energy>
    <i name="e_fr_energy">   -107.84189202 </i>
    <i name="e_wo_entrp">   -107.78839968 </i>
    <i name="e_0_energy">   -107.81514585 </i>
   </energy>
  </scstep>
  <scstep>
   <time name="dav">    3.07    3.08</time>
   <time name="total">    3.38    3.39</time>
   <energy>
    <i name="e_fr_energy">   -128.24824920 </i>
    <i name="e_wo_entrp">   -128.21984544 </i>
    <i name="e_0_energy">   -128.23404732 </i>
   </energy>
  </scstep>
  <scstep>
   <time name="dav">    3.13    3.13</time>
   <time name="total">    3.43    3.44</time>
   <energy>
    <i name="e_fr_energy">   -119.53692429 </i>
    <i name="e_wo_entrp">   -119.48110069 </i>
    <i name="e_0_energy">   -119.50901249 </i>
   </energy>
  </scstep>
  <scstep>
   <time name="dav">    2.91    2.92</time>
   <time name="total">    3.21    3.22</time>
   <energy>
    <i name="e_fr_energy">   -108.41450306 </i>
    <i name="e_wo_entrp">   -108.38517216 </i>
    <i name="e_0_energy">   -108.39983761 </i>
   </energy>
  </scstep>
  <scstep>
   <time name="dav">    2.25    2.26</time>
   <time name="total">    2.52    2.54</time>
   <energy>
    <i name="e_fr_energy">   -107.15654617 </i>
    <i name="e_wo_entrp">   -107.13474567 </i>
    <i name="e_0_energy">   -107.14564592 </i>
   </energy>
  </scstep>
  <scstep>
   <time name="dav">    2.46    2.46</time>
   <time name="total">    2.74    2.76</time>
   <energy>
    <i name="e_fr_energy">   -107.96218931 </i>
    <i name="e_wo_entrp">   -107.94054397 </i>
    <i name="e_0_energy">   -107.95136664 </i>
   </energy>
  </scstep>
  <scstep>
   <time name="dav">    2.66    2.66</time>
   <time name="total">    2.95    2.96</time>
   <energy>
    <i name="e_fr_energy">   -106.61284608 </i>
    <i name="e_wo_entrp">   -106.57185418 </i>
    <i name="e_0_energy">   -106.59235013 </i>
   </energy>
  </scstep>
  <scstep>
   <time name="dav">    2.59    2.60</time>
   <time name="total">    2.88    2.89</time>
   <energy>
    <i name="e_fr_energy">   -102.12420013 </i>
    <i name="e_wo_entrp">   -102.09110155 </i>
    <i name="e_0_energy">   -102.10765084 </i>
   </energy>
  </scstep>
  <scstep>
   <time name="dav">    2.52    2.56</time>
   <time name="total">    2.81    2.86</time>
   <energy>
    <i name="e_fr_energy">   -100.81766728 </i>
    <i name="e_wo_entrp">   -100.78121087 </i>
    <i name="e_0_energy">   -100.79943907 </i>
   </energy>
  </scstep>
  <scstep>
   <time name="dav">    2.62    2.68</time>
   <time name="total">    2.93    3.01</time>
   <energy>
    <i name="e_fr_energy">   -100.97405359 </i>
    <i name="e_wo_entrp">   -100.93208437 </i>
    <i name="e_0_energy">   -100.95306898 </i>
   </energy>
  </scstep>
  <scstep>
   <time name="dav">    2.59    2.67</time>
   <time name="total">    3.08    3.21</time>
   <energy>
    <i name="e_fr_energy">   -100.84382288 </i>
    <i name="e_wo_entrp">   -100.81901524 </i>
    <i name="e_0_energy">   -100.83141906 </i>
   </energy>
  </scstep>
  <scstep>
   <time name="dav">    2.88    3.03</time>
   <time name="total">    3.18    3.34</time>
   <energy>
    <i name="e_fr_energy">   -100.79202740 </i>
    <i name="e_wo_entrp">   -100.76555073 </i>
    <i name="e_0_energy">   -100.77878906 </i>
   </energy>
  </scstep>
  <scstep>
   <time name="dav">    2.13    2.14</time>
   <time name="total">    2.41    2.43</time>
   <energy>
    <i name="e_fr_energy">   -100.82984293 </i>
    <i name="e_wo_entrp">   -100.80625882 </i>
    <i name="e_0_energy">   -100.81805087 </i>
   </energy>
  </scstep>
  <scstep>
   <time name="dav">    2.24    2.24</time>
   <time name="total">    2.51    2.52</time>
   <energy>
    <i name="e_fr_energy">   -100.71040848 </i>
    <i name="e_wo_entrp">   -100.67615417 </i>
    <i name="e_0_energy">   -100.69328132 </i>
   </energy>
  </scstep>
  <scstep>
   <time name="dav">    2.23    2.23</time>
   <time name="total">    2.50    2.51</time>
   <energy>
    <i name="e_fr_energy">   -100.39909994 </i>
    <i name="e_wo_entrp">   -100.36981528 </i>
    <i name="e_0_energy">   -100.38445761 </i>
   </energy>
  </scstep>
  <scstep>
   <time name="dav">    2.27    2.28</time>
   <time name="total">    2.54    2.55</time>
   <energy>
    <i name="e_fr_energy">   -100.32262960 </i>
    <i name="e_wo_entrp">   -100.28051956 </i>
    <i name="e_0_energy">   -100.30157458 </i>
   </energy>
  </scstep>
  <scstep>
   <time name="dav">    2.18    2.18</time>
   <time name="total">    2.44    2.45</time>
   <energy>
    <i name="e_fr_energy">   -100.31127373 </i>
    <i name="e_wo_entrp">   -100.27508162 </i>
    <i name="e_0_energy">   -100.29317768 </i>
   </energy>
  </scstep>
  <scstep>
   <time name="dav">    2.07    2.08</time>
   <time name="total">    2.34    2.34</time>
   <energy>
    <i name="e_fr_energy">   -100.31396913 </i>
    <i name="e_wo_entrp">   -100.27719225 </i>
    <i name="e_0_energy">   -100.29558069 </i>
   </energy>
  </scstep>
  <scstep>
   <time name="dav">    1.49    1.50</time>
   <time name="total">    1.62    1.63</time>
   <energy>
    <i name="alphaZ">    262.47990408 </i>
    <i name="ewald"> 139527.96361200 </i>
    <i name="hartreedc">-151809.98149335 </i>
    <i name="XCdc">     83.19634339 </i>
    <i name="pawpsdc">  14812.97873099 </i>
    <i name="pawaedc"> -14386.18885301 </i>
    <i name="eentropy">     -0.03668469 </i>
    <i name="bandstr">   -823.31985804 </i>
    <i name="atom">  12232.59423587 </i>
    <i name="e_fr_energy">   -100.31406277 </i>
    <i name="e_wo_entrp">   -100.27737808 </i>
    <i name="e_0_energy">   -100.29572042 </i>
   </energy>
  </scstep>
  <structure>
   <crystal>
    <varray name="basis" >
     <v>       5.63307200       0.00000000       0.21554300 </v>
     <v>       2.81241200       4.88076200       0.21554300 </v>
     <v>       0.00000000       0.00000000      36.85793800 </v>
    </varray>
    <i name="volume">   1013.36049145 </i>
    <varray name="rec_basis" >
     <v>       0.17752303      -0.10229302       0.00000000 </v>
     <v>       0.00000000       0.20488604       0.00000000 </v>
     <v>      -0.00103814      -0.00059996       0.02713120 </v>
    </varray>
   </crystal>
   <varray name="positions" >
    <v>       0.01562500       0.14062500       0.40625000 </v>
    <v>       0.01562500       0.64062500       0.40625000 </v>
    <v>       0.51562500       0.14062500       0.40625000 </v>
    <v>       0.51562500       0.64062500       0.40625000 </v>
    <v>       0.17187500       0.29687500       0.46875000 </v>
    <v>       0.17187500       0.79687500       0.46875000 </v>
    <v>       0.67187500       0.29687500       0.46875000 </v>
    <v>       0.67187500       0.79687500       0.46875000 </v>
    <v>       0.34279200       0.40917300       0.53212600 </v>
    <v>       0.34280300       0.90913800       0.53213200 </v>
    <v>       0.84276600       0.40926100       0.53214000 </v>
    <v>       0.84287500       0.90923400       0.53213200 </v>
    <v>       0.51315900       0.01054900       0.59867100 </v>
    <v>       0.51312600       0.51050900       0.59868400 </v>
    <v>       0.01312100       0.01049300       0.59868600 </v>
    <v>       0.01311400       0.51052300       0.59868100 </v>
    <v>       0.50410600       0.00149600       0.65298600 </v>
    <v>       0.49890000       0.99628900       0.68422700 </v>
   </varray>
  </structure>
  <varray name="forces" >
   <v>       0.15785721      -0.11535945      -0.44800787 </v>
   <v>       0.11153415       0.02593658      -0.51488175 </v>
   <v>       0.15117961      -0.07625733      -0.36463395 </v>
   <v>       0.17921618       0.03207984      -0.49235895 </v>
   <v>      -0.02754644       0.21096133       0.80892553 </v>
   <v>      -0.04160478       0.07847165       0.66465567 </v>
   <v>      -0.00097767       0.21419850       0.80168962 </v>
   <v>      -0.01667279       0.19466036       0.91692233 </v>
   <v>       0.05045202       0.01060236       0.33609247 </v>
   <v>       0.35286193       0.00611510       0.54501878 </v>
   <v>       0.03555639       0.03279224       0.34659704 </v>
   <v>      -0.19725730      -0.02964642       0.47954920 </v>
   <v>      -0.02204135       0.01929809       2.16140051 </v>
   <v>       0.07554629       0.15228209       0.32036388 </v>
   <v>       0.11262841       0.09115486       0.26557166 </v>
   <v>       0.10635273       0.14126389       0.31093304 </v>
   <v>       1.10893343       0.21451908      -1.71494825 </v>
   <v>      -2.13601800      -1.20307277      -4.42288896 </v>
  </varray>
  <energy>
   <i name="e_fr_energy">   -100.31406277 </i>
   <i name="e_wo_entrp">   -100.27737808 </i>
   <i name="e_0_energy">   -100.29572042 </i>
  </energy>
  <time name="totalsc">   69.45   70.08</time>
 </calculation>
 <calculation>
  <scstep>
   <time name="dav">    2.29    2.30</time>
   <time name="total">    2.58    2.59</time>
   <energy>
    <i name="alphaZ">    262.47990408 </i>
    <i name="ewald"> 139672.42702496 </i>
    <i name="hartreedc">-151937.54797178 </i>
    <i name="XCdc">     83.92637589 </i>
    <i name="pawpsdc">  14810.42540245 </i>
    <i name="pawaedc"> -14383.61901649 </i>
    <i name="eentropy">     -0.03833522 </i>
    <i name="bandstr">   -839.48163519 </i>
    <i name="atom">  12232.59423587 </i>
    <i name="e_fr_energy">    -98.83401544 </i>
    <i name="e_wo_entrp">    -98.79568022 </i>
    <i name="e_0_energy">    -98.81484783 </i>
   </energy>
  </scstep>
  <scstep>
   <time name="dav">    2.57    2.58</time>
   <time name="total">    2.87    2.88</time>
   <energy>
    <i name="e_fr_energy">    -99.99824882 </i>
    <i name="e_wo_entrp">    -99.94647787 </i>
    <i name="e_0_energy">    -99.97236334 </i>
   </energy>
  </scstep>
  <scstep>
   <time name="dav">    2.52    2.53</time>
   <time name="total">    2.82    2.83</time>
   <energy>
    <i name="e_fr_energy">   -101.26869144 </i>
    <i name="e_wo_entrp">   -101.22477369 </i>
    <i name="e_0_energy">   -101.24673257 </i>
   </energy>
  </scstep>
  <scstep>
   <time name="dav">    2.82    2.83</time>
   <time name="total">    3.13    3.14</time>
   <energy>
    <i name="e_fr_energy">   -100.65408124 </i>
    <i name="e_wo_entrp">   -100.63713599 </i>
    <i name="e_0_energy">   -100.64560861 </i>
   </energy>
  </scstep>
  <scstep>
   <time name="dav">    3.10    3.11</time>
   <time name="total">    3.41    3.42</time>
   <energy>
    <i name="e_fr_energy">   -100.01865386 </i>
    <i name="e_wo_entrp">    -99.97548567 </i>
    <i name="e_0_energy">    -99.99706976 </i>
   </energy>
  </scstep>
  <scstep>
   <time name="dav">    2.68    2.69</time>
   <time name="total">    3.00    3.01</time>
   <energy>
    <i name="e_fr_energy">   -100.09532562 </i>
    <i name="e_wo_entrp">   -100.06110295 </i>
    <i name="e_0_energy">   -100.07821428 </i>
   </energy>
  </scstep>
  <scstep>
   <time name="dav">    2.75    2.75</time>
   <time name="total">    3.05    3.06</time>
   <energy>
    <i name="e_fr_energy">    -99.59563044 </i>
    <i name="e_wo_entrp">    -99.56187004 </i>
    <i name="e_0_energy">    -99.57875024 </i>
   </energy>
  </scstep>
  <scstep>
   <time name="dav">    2.75    2.77</time>
   <time name="total">    3.04    3.05</time>
   <energy>
    <i name="e_fr_energy">    -99.69625088 </i>
    <i name="e_wo_entrp">    -99.65288415 </i>
    <i name="e_0_energy">    -99.67456752 </i>
   </energy>
  </scstep>
  <scstep>
   <time name="dav">    2.71    2.74</time>
   <time name="total">    3.03    3.05</time>
   <energy>
    <i name="e_fr_energy">    -99.62018184 </i>
    <i name="e_wo_entrp">    -99.57912242 </i>
    <i name="e_0_energy">    -99.59965213 </i>
   </energy>
  </scstep>
  <scstep>
   <time name="dav">    2.58    2.59</time>
   <time name="total">    2.89    2.90</time>
   <energy>
    <i name="e_fr_energy">    -99.59499419 </i>
    <i name="e_wo_entrp">    -99.55003489 </i>
    <i name="e_0_energy">    -99.57251454 </i>
   </energy>
  </scstep>
  <scstep>
   <time name="dav">    2.60    2.61</time>
   <time name="total">    2.90    2.91</time>
   <energy>
    <i name="e_fr_energy">    -99.55777738 </i>
    <i name="e_wo_entrp">    -99.51683625 </i>
    <i name="e_0_energy">    -99.53730681 </i>
   </energy>
  </scstep>
  <scstep>
   <time name="dav">    2.70    2.71</time>
   <time name="total">    3.00    3.02</time>
   <energy>
    <i name="e_fr_energy">    -99.54460854 </i>
    <i name="e_wo_entrp">    -99.50099643 </i>
    <i name="e_0_energy">    -99.52280248 </i>
   </energy>
  </scstep>
  <scstep>
   <time name="dav">    2.65    2.66</time>
   <time name="total">    2.95    2.96</time>
   <energy>
    <i name="e_fr_energy">    -99.54139258 </i>
    <i name="e_wo_entrp">    -99.49695855 </i>
    <i name="e_0_energy">    -99.51917556 </i>
   </energy>
  </scstep>
  <scstep>
   <time name="dav">    2.64    2.64</time>
   <time name="total">    2.93    2.94</time>
   <energy>
    <i name="e_fr_energy">    -99.54164676 </i>
    <i name="e_wo_entrp">    -99.49440956 </i>
    <i name="e_0_energy">    -99.51802816 </i>
   </energy>
  </scstep>
  <scstep>
   <time name="dav">    2.64    2.65</time>
   <time name="total">    2.93    2.95</time>
   <energy>
    <i name="e_fr_energy">    -99.53788659 </i>
    <i name="e_wo_entrp">    -99.49010420 </i>
    <i name="e_0_energy">    -99.51399540 </i>
   </energy>
  </scstep>
  <scstep>
   <time name="dav">    2.58    2.59</time>
   <time name="total">    2.89    2.90</time>
   <energy>
    <i name="e_fr_energy">    -99.53377388 </i>
    <i name="e_wo_entrp">    -99.48480793 </i>
    <i name="e_0_energy">    -99.50929091 </i>
   </energy>
  </scstep>
  <scstep>
   <time name="dav">    2.67    2.68</time>
   <time name="total">    2.98    3.00</time>
   <energy>
    <i name="e_fr_energy">    -99.53591429 </i>
    <i name="e_wo_entrp">    -99.48630835 </i>
    <i name="e_0_energy">    -99.51111132 </i>
   </energy>
  </scstep>
  <scstep>
   <time name="dav">    2.00    2.01</time>
   <time name="total">    2.30    2.31</time>
   <energy>
    <i name="e_fr_energy">    -99.53528692 </i>
    <i name="e_wo_entrp">    -99.48594657 </i>
    <i name="e_0_energy">    -99.51061675 </i>
   </energy>
  </scstep>
  <scstep>
   <time name="dav">    2.07    2.08</time>
   <time name="total">    2.38    2.39</time>
   <energy>
    <i name="e_fr_energy">    -99.53323723 </i>
    <i name="e_wo_entrp">    -99.48414322 </i>
    <i name="e_0_energy">    -99.50869023 </i>
   </energy>
  </scstep>
  <scstep>
   <time name="dav">    1.96    1.96</time>
   <time name="total">    2.26    2.27</time>
   <energy>
    <i name="e_fr_energy">    -99.53308594 </i>
    <i name="e_wo_entrp">    -99.48402265 </i>
    <i name="e_0_energy">    -99.50855430 </i>
   </energy>
  </scstep>
  <scstep>
   <time name="dav">    1.69    1.70</time>
   <time name="total">    1.83    1.84</time>
   <energy>
    <i name="alphaZ">    262.47990408 </i>
    <i name="ewald"> 139672.42702496 </i>
    <i name="hartreedc">-151985.71194477 </i>
    <i name="XCdc">     84.52103177 </i>
    <i name="pawpsdc">  15147.23862850 </i>
    <i name="pawaedc"> -14720.23628476 </i>
    <i name="eentropy">     -0.04905610 </i>
    <i name="bandstr">   -792.79657369 </i>
    <i name="atom">  12232.59423587 </i>
    <i name="e_fr_energy">    -99.53303415 </i>
    <i name="e_wo_entrp">    -99.48397804 </i>
    <i name="e_0_energy">    -99.50850610 </i>
   </energy>
  </scstep>
  <structure>
   <crystal>
    <varray name="basis" >
     <v>       5.63307200       0.00000000       0.21554300 </v>
     <v>       2.81241200       4.88076200       0.21554300 </v>
     <v>       0.00000000       0.00000000      36.85793800 </v>
    </varray>
    <i name="volume">   1013.36049145 </i>
    <varray name="rec_basis" >
     <v>       0.17752303      -0.10229302       0.00000000 </v>
     <v>       0.00000000       0.20488604       0.00000000 </v>
     <v>      -0.00103814      -0.00059996       0.02713120 </v>
    </varray>
   </crystal>
   <varray name="positions" >
    <v>       0.01562500       0.14062500       0.40625000 </v>
    <v>       0.01562500       0.64062500       0.40625000 </v>
    <v>       0.51562500       0.14062500       0.40625000 </v>
    <v>       0.51562500       0.64062500       0.40625000 </v>
    <v>       0.17187500       0.29687500       0.46875000 </v>
    <v>       0.17187500       0.79687500       0.46875000 </v>
    <v>       0.67187500       0.29687500       0.46875000 </v>
    <v>       0.67187500       0.79687500       0.46875000 </v>
    <v>       0.34317176       0.40927780       0.53256307 </v>
    <v>       0.34579480       0.90919844       0.53282752 </v>
    <v>       0.84290869       0.40958513       0.53259092 </v>
    <v>       0.84133195       0.90894097       0.53277041 </v>
    <v>       0.51287500       0.01073975       0.60150056 </v>
    <v>       0.51302150       0.51201419       0.59909513 </v>
    <v>       0.01363573       0.01139400       0.59902532 </v>
    <v>       0.01332770       0.51191929       0.59907856 </v>
    <v>       0.51254448       0.00361636       0.65067959 </v>
    <v>       0.48654378       0.98439753       0.67857976 </v>
   </varray>
  </structure>
  <varray name="forces" >
   <v>       0.12747804      -0.42000936      -0.14035848 </v>
   <v>       0.05681967      -0.30780410      -0.21101139 </v>
   <v>       0.12413235      -0.36746169      -0.05123361 </v>
   <v>       0.16550837      -0.29774907      -0.13474287 </v>
   <v>      -0.06595050      -0.11784275       1.08328127 </v>
   <v>      -0.05789501      -0.24782973       1.01738911 </v>
   <v>      -0.00390655      -0.12340604       1.09894106 </v>
   <v>      -0.03842180      -0.13633974       1.17086745 </v>
   <v>       0.03750941      -0.34527673       0.35417276 </v>
   <v>       0.15807696      -0.31875397       0.71291778 </v>
   <v>       0.05231034      -0.41650538       0.29923636 </v>
   <v>       0.00955853      -0.48202728       0.41759709 </v>
   <v>      -0.01200539      -0.38680286      -1.31348723 </v>
   <v>       0.02402803      -0.33973708       0.29206087 </v>
   <v>       0.06744392      -0.33278727       0.23462406 </v>
   <v>       0.07325792      -0.34417243       0.29636527 </v>
   <v>       4.24000779       2.29090192     -17.57773315 </v>
   <v>      -4.95795206       2.69360356      12.45111366 </v>
  </varray>
  <energy>
   <i name="e_fr_energy">    -99.53303415 </i>
   <i name="e_wo_entrp">    -99.48397804 </i>
   <i name="e_0_energy">    -99.50850610 </i>
  </energy>
  <time name="totalsc">   60.60   61.00</time>
 </calculation>
 <calculation>
  <scstep>
   <time name="dav">    2.39    2.40</time>
   <time name="total">    2.70    2.71</time>
   <energy>
    <i name="alphaZ">    262.47990408 </i>
    <i name="ewald"> 139630.23787421 </i>
    <i name="hartreedc">-151948.81049921 </i>
    <i name="XCdc">     84.29084168 </i>
    <i name="pawpsdc">  15146.85865372 </i>
    <i name="pawaedc"> -14719.84708545 </i>
    <i name="eentropy">     -0.04814976 </i>
    <i name="bandstr">   -787.58300447 </i>
    <i name="atom">  12232.59423587 </i>
    <i name="e_fr_energy">    -99.82722933 </i>
    <i name="e_wo_entrp">    -99.77907956 </i>
    <i name="e_0_energy">    -99.80315444 </i>
   </energy>
  </scstep>
  <scstep>
   <time name="dav">    2.72    2.73</time>
   <time name="total">    3.02    3.04</time>
   <energy>
    <i name="e_fr_energy">    -99.86799552 </i>
    <i name="e_wo_entrp">    -99.81693853 </i>
    <i name="e_0_energy">    -99.84246702 </i>
   </energy>
  </scstep>
  <scstep>
   <time name="dav">    2.52    2.53</time>
   <time name="total">    2.83    2.84</time>
   <energy>
    <i name="e_fr_energy">    -99.95648255 </i>
    <i name="e_wo_entrp">    -99.90061939 </i>
    <i name="e_0_energy">    -99.92855097 </i>
   </energy>
  </scstep>
  <scstep>
   <time name="dav">    3.21    3.22</time>
   <time name="total">    3.53    3.54</time>
   <energy>
    <i name="e_fr_energy">   -100.12720273 </i>
    <i name="e_wo_entrp">   -100.08495628 </i>
    <i name="e_0_energy">   -100.10607951 </i>
   </energy>
  </scstep>
  <scstep>
   <time name="dav">    3.18    3.19</time>
   <time name="total">    3.49    3.51</time>
   <energy>
    <i name="e_fr_energy">    -99.89645856 </i>
    <i name="e_wo_entrp">    -99.84894897 </i>
    <i name="e_0_energy">    -99.87270376 </i>
   </energy>
  </scstep>
  <scstep>
   <time name="dav">    3.13    3.14</time>
   <time name="total">    3.44    3.45</time>
   <energy>
    <i name="e_fr_energy">    -99.91391555 </i>
    <i name="e_wo_entrp">    -99.86782630 </i>
    <i name="e_0_energy">    -99.89087093 </i>
   </energy>
  </scstep>
  <scstep>
   <time name="dav">    2.82    2.84</time>
   <time name="total">    3.11    3.13</time>
   <energy>
    <i name="e_fr_energy">    -99.86218248 </i>
    <i name="e_wo_entrp">    -99.81773454 </i>
    <i name="e_0_energy">    -99.83995851 </i>
   </energy>
  </scstep>
  <scstep>
   <time name="dav">    2.65    2.66</time>
   <time name="total">    2.93    2.95</time>
   <energy>
    <i name="e_fr_energy">    -99.88322204 </i>
    <i name="e_wo_entrp">    -99.83566921 </i>
    <i name="e_0_energy">    -99.85944563 </i>
   </energy>
  </scstep>
  <scstep>
   <time name="dav">    2.65    2.66</time>
   <time name="total">    2.95    2.97</time>
   <energy>
    <i name="e_fr_energy">    -99.85478367 </i>
    <i name="e_wo_entrp">    -99.81041501 </i>
    <i name="e_0_energy">    -99.83259934 </i>
   </energy>
  </scstep>
  <scstep>
   <time name="dav">    2.70    2.71</time>
   <time name="total">    3.00    3.01</time>
   <energy>
    <i name="e_fr_energy">    -99.85207682 </i>
    <i name="e_wo_entrp">    -99.80489685 </i>
    <i name="e_0_energy">    -99.82848683 </i>
   </energy>
  </scstep>
  <scstep>
   <time name="dav">    2.57    2.58</time>
   <time name="total">    2.71    2.72</time>
   <energy>
    <i name="alphaZ">    262.47990408 </i>
    <i name="ewald"> 139630.23787421 </i>
    <i name="hartreedc">-151943.97317471 </i>
    <i name="XCdc">     84.17463641 </i>
    <i name="pawpsdc">  15207.87269104 </i>
    <i name="pawaedc"> -14780.71635885 </i>
    <i name="eentropy">     -0.04689598 </i>
    <i name="bandstr">   -792.47489404 </i>
    <i name="atom">  12232.59423587 </i>
    <i name="e_fr_energy">    -99.85198199 </i>
    <i name="e_wo_entrp">    -99.80508600 </i>
    <i name="e_0_energy">    -99.82853399 </i>
   </energy>
  </scstep>
  <structure>
   <crystal>
    <varray name="basis" >
     <v>       5.63307200       0.00000000       0.21554300 </v>
     <v>       2.81241200       4.88076200       0.21554300 </v>
     <v>       0.00000000       0.00000000      36.85793800 </v>
    </varray>
    <i name="volume">   1013.36049145 </i>
    <varray name="rec_basis" >
     <v>       0.17752303      -0.10229302       0.00000000 </v>
     <v>       0.00000000       0.20488604       0.00000000 </v>
     <v>      -0.00103814      -0.00059996       0.02713120 </v>
    </varray>
   </crystal>
   <varray name="positions" >
    <v>       0.01562500       0.14062500       0.40625000 </v>
    <v>       0.01562500       0.64062500       0.40625000 </v>
    <v>       0.51562500       0.14062500       0.40625000 </v>
    <v>       0.51562500       0.64062500       0.40625000 </v>
    <v>       0.17187500       0.29687500       0.46875000 </v>
    <v>       0.17187500       0.79687500       0.46875000 </v>
    <v>       0.67187500       0.29687500       0.46875000 </v>
    <v>       0.67187500       0.79687500       0.46875000 </v>
    <v>       0.34306362       0.40924796       0.53243861 </v>
    <v>       0.34494287       0.90918123       0.53262947 </v>
    <v>       0.84286806       0.40949283       0.53246252 </v>
    <v>       0.84177134       0.90902441       0.53258862 </v>
    <v>       0.51295587       0.01068543       0.60069484 </v>
    <v>       0.51305125       0.51158559       0.59897806 </v>
    <v>       0.01348916       0.01113744       0.59892870 </v>
    <v>       0.01326685       0.51152169       0.59896535 </v>
    <v>       0.51014160       0.00301258       0.65133635 </v>
    <v>       0.49006225       0.98778366       0.68018783 </v>
   </varray>
  </structure>
  <varray name="forces" >
   <v>      -0.00359920      -0.23225365      -0.57739574 </v>
   <v>      -0.06599272      -0.11152223      -0.63565872 </v>
   <v>      -0.00735187      -0.18030413      -0.48859297 </v>
   <v>       0.02945860      -0.10240743      -0.57771705 </v>
   <v>      -0.19556459       0.07394468       0.63884404 </v>
   <v>      -0.19292639      -0.06230410       0.55751165 </v>
   <v>      -0.14106268       0.07128909       0.64758264 </v>
   <v>      -0.17100651       0.05439722       0.72924634 </v>
   <v>      -0.10742700      -0.13585803      -0.05769833 </v>
   <v>       0.08946984      -0.09358482       0.26220753 </v>
   <v>      -0.10191510      -0.17755389      -0.10260411 </v>
   <v>      -0.18003051      -0.23763695       0.02460668 </v>
   <v>      -0.03877786      -0.08821805      -0.49036492 </v>
   <v>      -0.09824868      -0.11919142      -0.10599604 </v>
   <v>      -0.05907456      -0.12400546      -0.15201594 </v>
   <v>      -0.04893560      -0.12079807      -0.09763846 </v>
   <v>       3.87442661       2.09948578     -12.44233908 </v>
   <v>      -2.58144179      -0.51347853      12.86802249 </v>
  </varray>
  <energy>
   <i name="e_fr_energy">    -99.85198199 </i>
   <i name="e_wo_entrp">    -99.80508600 </i>
   <i name="e_0_energy">    -99.82853399 </i>
  </energy>
  <time name="totalsc">   35.13   35.30</time>
 </calculation>
 <calculation>
  <scstep>
   <time name="dav">    2.41    2.42</time>
   <time name="total">    2.70    2.71</time>
   <energy>
    <i name="alphaZ">    262.47990408 </i>
    <i name="ewald"> 139586.69861429 </i>
    <i name="hartreedc">-151906.09273685 </i>
    <i name="XCdc">     83.94312754 </i>
    <i name="pawpsdc">  15207.55369698 </i>
    <i name="pawaedc"> -14780.39361063 </i>
    <i name="eentropy">     -0.04694210 </i>
    <i name="bandstr">   -786.87784865 </i>
    <i name="atom">  12232.59423587 </i>
    <i name="e_fr_energy">   -100.14155946 </i>
    <i name="e_wo_entrp">   -100.09461737 </i>
    <i name="e_0_energy">   -100.11808842 </i>
   </energy>
  </scstep>
  <scstep>
   <time name="dav">    2.68    2.68</time>
   <time name="total">    2.98    2.99</time>
   <energy>
    <i name="e_fr_energy">   -100.19890579 </i>
    <i name="e_wo_entrp">   -100.15126752 </i>
    <i name="e_0_energy">   -100.17508666 </i>
   </energy>
  </scstep>
  <scstep>
   <time name="dav">    3.29    3.30</time>
   <time name="total">    3.59    3.61</time>
   <energy>
    <i name="e_fr_energy">   -101.32944875 </i>
    <i name="e_wo_entrp">   -101.28688465 </i>
    <i name="e_0_energy">   -101.30816670 </i>
   </energy>
  </scstep>
  <scstep>
   <time name="dav">    3.36    3.37</time>
   <time name="total">    3.67    3.69</time>
   <energy>
    <i name="e_fr_energy">   -100.72973952 </i>
    <i name="e_wo_entrp">   -100.67380077 </i>
    <i name="e_0_energy">   -100.70177015 </i>
   </energy>
  </scstep>
  <scstep>
   <time name="dav">    2.83    2.84</time>
   <time name="total">    3.14    3.15</time>
   <energy>
    <i name="e_fr_energy">   -100.24467735 </i>
    <i name="e_wo_entrp">   -100.20443801 </i>
    <i name="e_0_energy">   -100.22455768 </i>
   </energy>
  </scstep>
  <scstep>
   <time name="dav">    2.58    2.59</time>
   <time name="total">    2.89    2.90</time>
   <energy>
    <i name="e_fr_energy">   -100.19313879 </i>
    <i name="e_wo_entrp">   -100.14388869 </i>
    <i name="e_0_energy">   -100.16851374 </i>
   </energy>
  </scstep>
  <scstep>
   <time name="dav">    2.54    2.56</time>
   <time name="total">    2.85    2.87</time>
   <energy>
    <i name="e_fr_energy">   -100.22419992 </i>
    <i name="e_wo_entrp">   -100.17651920 </i>
    <i name="e_0_energy">   -100.20035956 </i>
   </energy>
  </scstep>
  <scstep>
   <time name="dav">    2.52    2.53</time>
   <time name="total">    2.82    2.83</time>
   <energy>
    <i name="e_fr_energy">   -100.17918010 </i>
    <i name="e_wo_entrp">   -100.13455178 </i>
    <i name="e_0_energy">   -100.15686594 </i>
   </energy>
  </scstep>
  <scstep>
   <time name="dav">    2.65    2.66</time>
   <time name="total">    2.95    2.97</time>
   <energy>
    <i name="e_fr_energy">   -100.17831993 </i>
    <i name="e_wo_entrp">   -100.13153970 </i>
    <i name="e_0_energy">   -100.15492982 </i>
   </energy>
  </scstep>
  <scstep>
   <time name="dav">    2.55    2.57</time>
   <time name="total">    2.84    2.86</time>
   <energy>
    <i name="e_fr_energy">   -100.17654072 </i>
    <i name="e_wo_entrp">   -100.13097490 </i>
    <i name="e_0_energy">   -100.15375781 </i>
   </energy>
  </scstep>
  <scstep>
   <time name="dav">    2.61    2.62</time>
   <time name="total">    2.92    2.93</time>
   <energy>
    <i name="e_fr_energy">   -100.17278004 </i>
    <i name="e_wo_entrp">   -100.12737616 </i>
    <i name="e_0_energy">   -100.15007810 </i>
   </energy>
  </scstep>
  <scstep>
   <time name="dav">    2.63    2.63</time>
   <time name="total">    2.93    2.94</time>
   <energy>
    <i name="e_fr_energy">   -100.17057181 </i>
    <i name="e_wo_entrp">   -100.12426275 </i>
    <i name="e_0_energy">   -100.14741728 </i>
   </energy>
  </scstep>
  <scstep>
   <time name="dav">    2.56    2.57</time>
   <time name="total">    2.88    2.89</time>
   <energy>
    <i name="e_fr_energy">   -100.17084403 </i>
    <i name="e_wo_entrp">   -100.12480235 </i>
    <i name="e_0_energy">   -100.14782319 </i>
   </energy>
  </scstep>
  <scstep>
   <time name="dav">    1.90    1.91</time>
   <time name="total">    2.04    2.05</time>
   <energy>
    <i name="alphaZ">    262.47990408 </i>
    <i name="ewald"> 139586.69861429 </i>
    <i name="hartreedc">-151900.97772525 </i>
    <i name="XCdc">     83.82803991 </i>
    <i name="pawpsdc">  14939.99693840 </i>
    <i name="pawaedc"> -14512.72439026 </i>
    <i name="eentropy">     -0.04572146 </i>
    <i name="bandstr">   -792.02063970 </i>
    <i name="atom">  12232.59423587 </i>
    <i name="e_fr_energy">   -100.17074412 </i>
    <i name="e_wo_entrp">   -100.12502267 </i>
    <i name="e_0_energy">   -100.14788340 </i>
   </energy>
  </scstep>
  <structure>
   <crystal>
    <varray name="basis" >
     <v>       5.63307200       0.00000000       0.21554300 </v>
     <v>       2.81241200       4.88076200       0.21554300 </v>
     <v>       0.00000000       0.00000000      36.85793800 </v>
    </varray>
    <i name="volume">   1013.36049145 </i>
    <varray name="rec_basis" >
     <v>       0.17752303      -0.10229302       0.00000000 </v>
     <v>       0.00000000       0.20488604       0.00000000 </v>
     <v>      -0.00103814      -0.00059996       0.02713120 </v>
    </varray>
   </crystal>
   <varray name="positions" >
    <v>       0.01562500       0.14062500       0.40625000 </v>
    <v>       0.01562500       0.64062500       0.40625000 </v>
    <v>       0.51562500       0.14062500       0.40625000 </v>
    <v>       0.51562500       0.64062500       0.40625000 </v>
    <v>       0.17187500       0.29687500       0.46875000 </v>
    <v>       0.17187500       0.79687500       0.46875000 </v>
    <v>       0.67187500       0.29687500       0.46875000 </v>
    <v>       0.67187500       0.79687500       0.46875000 </v>
    <v>       0.34294982       0.40921655       0.53230764 </v>
    <v>       0.34404636       0.90916312       0.53242105 </v>
    <v>       0.84282530       0.40939570       0.53232740 </v>
    <v>       0.84223373       0.90911222       0.53239732 </v>
    <v>       0.51304097       0.01062827       0.59984693 </v>
    <v>       0.51308257       0.51113454       0.59885486 </v>
    <v>       0.01333492       0.01086744       0.59882702 </v>
    <v>       0.01320281       0.51110328       0.59884622 </v>
    <v>       0.50761293       0.00237720       0.65202748 </v>
    <v>       0.49376490       0.99134705       0.68188008 </v>
   </varray>
  </structure>
  <varray name="forces" >
   <v>       0.38093026       0.03067278      -0.69463577 </v>
   <v>       0.32434954       0.16332357      -0.75112868 </v>
   <v>       0.37967467       0.08947582      -0.60238451 </v>
   <v>       0.41034185       0.17208745      -0.71134059 </v>
   <v>       0.19192123       0.34473510       0.47904888 </v>
   <v>       0.18817441       0.20095157       0.40090002 </v>
   <v>       0.23686275       0.34252410       0.48260482 </v>
   <v>       0.21201456       0.31725947       0.56778924 </v>
   <v>       0.26637468       0.15501762      -0.14794883 </v>
   <v>       0.51606276       0.20162696       0.10040908 </v>
   <v>       0.26226842       0.12878910      -0.18385022 </v>
   <v>       0.12605120       0.10027401      -0.06949675 </v>
   <v>       0.45889790       0.17170918       0.22664947 </v>
   <v>       0.29785423       0.19282056      -0.18746068 </v>
   <v>       0.32996164       0.17325940      -0.22929131 </v>
   <v>       0.34027815       0.19153220      -0.18616434 </v>
   <v>       0.74623464       0.02568262      -7.12382895 </v>
   <v>      -5.66825288      -3.00174150       8.63012910 </v>
  </varray>
  <energy>
   <i name="e_fr_energy">   -100.17074412 </i>
   <i name="e_wo_entrp">   -100.12502267 </i>
   <i name="e_0_energy">   -100.14788340 </i>
  </energy>
  <time name="totalsc">   42.64   42.89</time>
 </calculation>
 <calculation>
  <scstep>
   <time name="dav">    2.39    2.40</time>
   <time name="total">    2.70    2.71</time>
   <energy>
    <i name="alphaZ">    262.47990408 </i>
    <i name="ewald"> 139568.76921003 </i>
    <i name="hartreedc">-151885.24721412 </i>
    <i name="XCdc">     83.73442723 </i>
    <i name="pawpsdc">  14939.61669939 </i>
    <i name="pawaedc"> -14512.34292190 </i>
    <i name="eentropy">     -0.04573355 </i>
    <i name="bandstr">   -789.79523060 </i>
    <i name="atom">  12232.59423587 </i>
    <i name="e_fr_energy">   -100.23662357 </i>
    <i name="e_wo_entrp">   -100.19089002 </i>
    <i name="e_0_energy">   -100.21375680 </i>
   </energy>
  </scstep>
  <scstep>
   <time name="dav">    2.57    2.58</time>
   <time name="total">    2.88    2.89</time>
   <energy>
    <i name="e_fr_energy">   -100.27362561 </i>
    <i name="e_wo_entrp">   -100.22557693 </i>
    <i name="e_0_energy">   -100.24960127 </i>
   </energy>
  </scstep>
  <scstep>
   <time name="dav">    2.88    2.89</time>
   <time name="total">    3.18    3.19</time>
   <energy>
    <i name="e_fr_energy">   -100.27908013 </i>
    <i name="e_wo_entrp">   -100.23530286 </i>
    <i name="e_0_energy">   -100.25719150 </i>
   </energy>
  </scstep>
  <scstep>
   <time name="dav">    2.80    2.81</time>
   <time name="total">    3.11    3.13</time>
   <energy>
    <i name="e_fr_energy">   -100.26529691 </i>
    <i name="e_wo_entrp">   -100.21602767 </i>
    <i name="e_0_energy">   -100.24066229 </i>
   </energy>
  </scstep>
  <scstep>
   <time name="dav">    2.68    2.69</time>
   <time name="total">    2.97    2.99</time>
   <energy>
    <i name="e_fr_energy">   -100.24624414 </i>
    <i name="e_wo_entrp">   -100.20492854 </i>
    <i name="e_0_energy">   -100.22558634 </i>
   </energy>
  </scstep>
  <scstep>
   <time name="dav">    2.93    2.93</time>
   <time name="total">    3.23    3.24</time>
   <energy>
    <i name="e_fr_energy">   -100.25872342 </i>
    <i name="e_wo_entrp">   -100.21428677 </i>
    <i name="e_0_energy">   -100.23650509 </i>
   </energy>
  </scstep>
  <scstep>
   <time name="dav">    2.76    2.78</time>
   <time name="total">    3.06    3.08</time>
   <energy>
    <i name="e_fr_energy">   -100.24864216 </i>
    <i name="e_wo_entrp">   -100.20221253 </i>
    <i name="e_0_energy">   -100.22542735 </i>
   </energy>
  </scstep>
  <scstep>
   <time name="dav">    2.55    2.56</time>
   <time name="total">    2.85    2.86</time>
   <energy>
    <i name="e_fr_energy">   -100.24959555 </i>
    <i name="e_wo_entrp">   -100.20380080 </i>
    <i name="e_0_energy">   -100.22669818 </i>
   </energy>
  </scstep>
  <scstep>
   <time name="dav">    2.70    2.71</time>
   <time name="total">    3.01    3.02</time>
   <energy>
    <i name="e_fr_energy">   -100.24185725 </i>
    <i name="e_wo_entrp">   -100.19684814 </i>
    <i name="e_0_energy">   -100.21935270 </i>
   </energy>
  </scstep>
  <scstep>
   <time name="dav">    2.59    2.60</time>
   <time name="total">    2.88    2.89</time>
   <energy>
    <i name="e_fr_energy">   -100.24166151 </i>
    <i name="e_wo_entrp">   -100.19600337 </i>
    <i name="e_0_energy">   -100.21883244 </i>
   </energy>
  </scstep>
  <scstep>
   <time name="dav">    1.85    1.86</time>
   <time name="total">    1.99    1.99</time>
   <energy>
    <i name="alphaZ">    262.47990408 </i>
    <i name="ewald"> 139568.76921003 </i>
    <i name="hartreedc">-151882.71625734 </i>
    <i name="XCdc">     83.69095816 </i>
    <i name="pawpsdc">  14891.76428255 </i>
    <i name="pawaedc"> -14464.40749295 </i>
    <i name="eentropy">     -0.04591992 </i>
    <i name="bandstr">   -792.37054633 </i>
    <i name="atom">  12232.59423587 </i>
    <i name="e_fr_energy">   -100.24162585 </i>
    <i name="e_wo_entrp">   -100.19570593 </i>
    <i name="e_0_energy">   -100.21866589 </i>
   </energy>
  </scstep>
  <structure>
   <crystal>
    <varray name="basis" >
     <v>       5.63307200       0.00000000       0.21554300 </v>
     <v>       2.81241200       4.88076200       0.21554300 </v>
     <v>       0.00000000       0.00000000      36.85793800 </v>
    </varray>
    <i name="volume">   1013.36049145 </i>
    <varray name="rec_basis" >
     <v>       0.17752303      -0.10229302       0.00000000 </v>
     <v>       0.00000000       0.20488604       0.00000000 </v>
     <v>      -0.00103814      -0.00059996       0.02713120 </v>
    </varray>
   </crystal>
   <varray name="positions" >
    <v>       0.01562500       0.14062500       0.40625000 </v>
    <v>       0.01562500       0.64062500       0.40625000 </v>
    <v>       0.51562500       0.14062500       0.40625000 </v>
    <v>       0.51562500       0.64062500       0.40625000 </v>
    <v>       0.17187500       0.29687500       0.46875000 </v>
    <v>       0.17187500       0.79687500       0.46875000 </v>
    <v>       0.67187500       0.29687500       0.46875000 </v>
    <v>       0.67187500       0.79687500       0.46875000 </v>
    <v>       0.34290221       0.40920341       0.53225285 </v>
    <v>       0.34367127       0.90915554       0.53233385 </v>
    <v>       0.84280741       0.40935507       0.53227087 </v>
    <v>       0.84242718       0.90914896       0.53231728 </v>
    <v>       0.51307658       0.01060436       0.59949218 </v>
    <v>       0.51309567       0.51094583       0.59880332 </v>
    <v>       0.01327038       0.01075448       0.59878448 </v>
    <v>       0.01317602       0.51092822       0.59879638 </v>
    <v>       0.50655498       0.00211136       0.65231664 </v>
    <v>       0.49531403       0.99283791       0.68258808 </v>
   </varray>
  </structure>
  <varray name="forces" >
   <v>       0.38925482      -0.00312699      -0.98124384 </v>
   <v>       0.33473809       0.13044871      -1.02909482 </v>
   <v>       0.38754382       0.05498071      -0.88537420 </v>
   <v>       0.41749355       0.13919284      -0.99932978 </v>
   <v>       0.19909654       0.30781220       0.18802178 </v>
   <v>       0.19322435       0.16356156       0.09517432 </v>
   <v>       0.24279920       0.30738404       0.18815687 </v>
   <v>       0.21876734       0.28065912       0.27483461 </v>
   <v>       0.27393672       0.11971121      -0.40850056 </v>
   <v>       0.53385144       0.16843402      -0.18914606 </v>
   <v>       0.26679942       0.10909915      -0.44058682 </v>
   <v>       0.09968725       0.08566120      -0.31594038 </v>
   <v>       0.35081810       0.06620153       0.33553054 </v>
   <v>       0.30585751       0.17899342      -0.46262520 </v>
   <v>       0.33863295       0.14858462      -0.50301620 </v>
   <v>       0.34685434       0.17480778      -0.46368611 </v>
   <v>       0.91943753       0.09121124      -6.94052579 </v>
   <v>      -5.81879299      -2.52361638      12.53735164 </v>
  </varray>
  <energy>
   <i name="e_fr_energy">   -100.24162585 </i>
   <i name="e_wo_entrp">   -100.19570593 </i>
   <i name="e_0_energy">   -100.21866589 </i>
  </energy>
  <time name="totalsc">   33.28   33.45</time>
 </calculation>
 <calculation>
  <scstep>
   <time name="dav">    2.40    2.41</time>
   <time name="total">    2.72    2.72</time>
   <energy>
    <i name="alphaZ">    262.47990408 </i>
    <i name="ewald"> 139548.24164303 </i>
    <i name="hartreedc">-151865.00167010 </i>
    <i name="XCdc">     83.58460002 </i>
    <i name="pawpsdc">  14890.57729299 </i>
    <i name="pawaedc"> -14463.21937025 </i>
    <i name="eentropy">     -0.04616734 </i>
    <i name="bandstr">   -789.55712948 </i>
    <i name="atom">  12232.59423587 </i>
    <i name="e_fr_energy">   -100.34666118 </i>
    <i name="e_wo_entrp">   -100.30049384 </i>
    <i name="e_0_energy">   -100.32357751 </i>
   </energy>
  </scstep>
  <scstep>
   <time name="dav">    2.67    2.67</time>
   <time name="total">    2.98    2.99</time>
   <energy>
    <i name="e_fr_energy">   -100.53703384 </i>
    <i name="e_wo_entrp">   -100.49688304 </i>
    <i name="e_0_energy">   -100.51695844 </i>
   </energy>
  </scstep>
  <scstep>
   <time name="dav">    2.99    3.00</time>
   <time name="total">    3.29    3.30</time>
   <energy>
    <i name="e_fr_energy">   -100.41451524 </i>
    <i name="e_wo_entrp">   -100.36618155 </i>
    <i name="e_0_energy">   -100.39034839 </i>
   </energy>
  </scstep>
  <scstep>
   <time name="dav">    2.67    2.68</time>
   <time name="total">    2.97    2.98</time>
   <energy>
    <i name="e_fr_energy">   -100.36871326 </i>
    <i name="e_wo_entrp">   -100.32483725 </i>
    <i name="e_0_energy">   -100.34677526 </i>
   </energy>
  </scstep>
  <scstep>
   <time name="dav">    2.74    2.75</time>
   <time name="total">    3.05    3.06</time>
   <energy>
    <i name="e_fr_energy">   -100.36264787 </i>
    <i name="e_wo_entrp">   -100.32166831 </i>
    <i name="e_0_energy">   -100.34215809 </i>
   </energy>
  </scstep>
  <scstep>
   <time name="dav">    2.46    2.47</time>
   <time name="total">    2.76    2.77</time>
   <energy>
    <i name="e_fr_energy">   -100.36718641 </i>
    <i name="e_wo_entrp">   -100.32325696 </i>
    <i name="e_0_energy">   -100.34522168 </i>
   </energy>
  </scstep>
  <scstep>
   <time name="dav">    3.02    3.05</time>
   <time name="total">    3.32    3.36</time>
   <energy>
    <i name="e_fr_energy">   -100.38197983 </i>
    <i name="e_wo_entrp">   -100.33347965 </i>
    <i name="e_0_energy">   -100.35772974 </i>
   </energy>
  </scstep>
  <scstep>
   <time name="dav">    2.80    2.81</time>
   <time name="total">    3.11    3.12</time>
   <energy>
    <i name="e_fr_energy">   -100.35549388 </i>
    <i name="e_wo_entrp">   -100.31324611 </i>
    <i name="e_0_energy">   -100.33436999 </i>
   </energy>
  </scstep>
  <scstep>
   <time name="dav">    2.63    2.64</time>
   <time name="total">    2.92    2.93</time>
   <energy>
    <i name="e_fr_energy">   -100.35455765 </i>
    <i name="e_wo_entrp">   -100.31083907 </i>
    <i name="e_0_energy">   -100.33269836 </i>
   </energy>
  </scstep>
  <scstep>
   <time name="dav">    2.16    2.17</time>
   <time name="total">    2.47    2.48</time>
   <energy>
    <i name="e_fr_energy">   -100.35445321 </i>
    <i name="e_wo_entrp">   -100.31063621 </i>
    <i name="e_0_energy">   -100.33254471 </i>
   </energy>
  </scstep>
  <scstep>
   <time name="dav">    2.15    2.16</time>
   <time name="total">    2.47    2.48</time>
   <energy>
    <i name="e_fr_energy">   -100.35477122 </i>
    <i name="e_wo_entrp">   -100.31039133 </i>
    <i name="e_0_energy">   -100.33258127 </i>
   </energy>
  </scstep>
  <scstep>
   <time name="dav">    2.02    2.04</time>
   <time name="total">    2.34    2.35</time>
   <energy>
    <i name="e_fr_energy">   -100.35399692 </i>
    <i name="e_wo_entrp">   -100.30913039 </i>
    <i name="e_0_energy">   -100.33156365 </i>
   </energy>
  </scstep>
  <scstep>
   <time name="dav">    1.71    1.72</time>
   <time name="total">    2.02    2.03</time>
   <energy>
    <i name="e_fr_energy">   -100.35351531 </i>
    <i name="e_wo_entrp">   -100.30854643 </i>
    <i name="e_0_energy">   -100.33103087 </i>
   </energy>
  </scstep>
  <scstep>
   <time name="dav">    1.63    1.64</time>
   <time name="total">    1.76    1.77</time>
   <energy>
    <i name="alphaZ">    262.47990408 </i>
    <i name="ewald"> 139548.24164303 </i>
    <i name="hartreedc">-151862.28519806 </i>
    <i name="XCdc">     83.53181699 </i>
    <i name="pawpsdc">  14838.82251630 </i>
    <i name="pawaedc"> -14411.34856609 </i>
    <i name="eentropy">     -0.04511257 </i>
    <i name="bandstr">   -792.34469543 </i>
    <i name="atom">  12232.59423587 </i>
    <i name="e_fr_energy">   -100.35345588 </i>
    <i name="e_wo_entrp">   -100.30834332 </i>
    <i name="e_0_energy">   -100.33089960 </i>
   </energy>
  </scstep>
  <structure>
   <crystal>
    <varray name="basis" >
     <v>       5.63307200       0.00000000       0.21554300 </v>
     <v>       2.81241200       4.88076200       0.21554300 </v>
     <v>       0.00000000       0.00000000      36.85793800 </v>
    </varray>
    <i name="volume">   1013.36049145 </i>
    <varray name="rec_basis" >
     <v>       0.17752303      -0.10229302       0.00000000 </v>
     <v>       0.00000000       0.20488604       0.00000000 </v>
     <v>      -0.00103814      -0.00059996       0.02713120 </v>
    </varray>
   </crystal>
   <varray name="positions" >
    <v>       0.01562500       0.14062500       0.40625000 </v>
    <v>       0.01562500       0.64062500       0.40625000 </v>
    <v>       0.51562500       0.14062500       0.40625000 </v>
    <v>       0.51562500       0.64062500       0.40625000 </v>
    <v>       0.17187500       0.29687500       0.46875000 </v>
    <v>       0.17187500       0.79687500       0.46875000 </v>
    <v>       0.67187500       0.29687500       0.46875000 </v>
    <v>       0.67187500       0.79687500       0.46875000 </v>
    <v>       0.34284711       0.40918821       0.53218942 </v>
    <v>       0.34323713       0.90914677       0.53223292 </v>
    <v>       0.84278670       0.40930803       0.53220543 </v>
    <v>       0.84265109       0.90919148       0.53222464 </v>
    <v>       0.51311779       0.01057668       0.59908159 </v>
    <v>       0.51311084       0.51072742       0.59874366 </v>
    <v>       0.01319569       0.01062374       0.59873524 </v>
    <v>       0.01314501       0.51072561       0.59873869 </v>
    <v>       0.50533049       0.00180368       0.65265132 </v>
    <v>       0.49710701       0.99456345       0.68340754 </v>
   </varray>
  </structure>
  <varray name="forces" >
   <v>       0.08517100      -0.21042873      -0.52207010 </v>
   <v>       0.03516576      -0.07257195      -0.56385296 </v>
   <v>       0.08409781      -0.15245498      -0.42566660 </v>
   <v>       0.11078642      -0.06469910      -0.54398889 </v>
   <v>      -0.10349416       0.10363322       0.64109972 </v>
   <v>      -0.11356523      -0.04478072       0.54151118 </v>
   <v>      -0.06420098       0.10366650       0.63762456 </v>
   <v>      -0.08547004       0.07271805       0.72886430 </v>
   <v>      -0.02798261      -0.08719775       0.10154087 </v>
   <v>       0.25139692      -0.05033664       0.29784824 </v>
   <v>      -0.04049021      -0.08583043       0.07333168 </v>
   <v>      -0.23658617      -0.11128726       0.21272651 </v>
   <v>      -0.04056796      -0.22093793       1.37709457 </v>
   <v>       0.00133342       0.00353038       0.02925818 </v>
   <v>       0.03671051      -0.03848276      -0.01542088 </v>
   <v>       0.04058847      -0.00152353       0.02678298 </v>
   <v>       0.28590113      -0.36567664      -3.77861614 </v>
   <v>      -0.21879407       1.22266027       1.18193279 </v>
  </varray>
  <energy>
   <i name="e_fr_energy">   -100.35345588 </i>
   <i name="e_wo_entrp">   -100.30834332 </i>
   <i name="e_0_energy">   -100.33089960 </i>
  </energy>
  <time name="totalsc">   39.54   39.72</time>
 </calculation>
 <calculation>
  <scstep>
   <time name="dav">    2.41    2.42</time>
   <time name="total">    2.72    2.73</time>
   <energy>
    <i name="alphaZ">    262.47990408 </i>
    <i name="ewald"> 139519.11728289 </i>
    <i name="hartreedc">-151838.92422836 </i>
    <i name="XCdc">     83.40339159 </i>
    <i name="pawpsdc">  14838.56343016 </i>
    <i name="pawaedc"> -14411.08938186 </i>
    <i name="eentropy">     -0.05353178 </i>
    <i name="bandstr">   -785.46567211 </i>
    <i name="atom">  12232.59423587 </i>
    <i name="e_fr_energy">    -99.37456952 </i>
    <i name="e_wo_entrp">    -99.32103774 </i>
    <i name="e_0_energy">    -99.34780363 </i>
   </energy>
  </scstep>
  <scstep>
   <time name="dav">    2.55    2.55</time>
   <time name="total">    2.84    2.85</time>
   <energy>
    <i name="e_fr_energy">   -100.72345685 </i>
    <i name="e_wo_entrp">   -100.68443334 </i>
    <i name="e_0_energy">   -100.70394510 </i>
   </energy>
  </scstep>
  <scstep>
   <time name="dav">    2.88    2.88</time>
   <time name="total">    3.18    3.19</time>
   <energy>
    <i name="e_fr_energy">   -102.06111707 </i>
    <i name="e_wo_entrp">   -102.01661370 </i>
    <i name="e_0_energy">   -102.03886539 </i>
   </energy>
  </scstep>
  <scstep>
   <time name="dav">    4.15    4.16</time>
   <time name="total">    4.45    4.47</time>
   <energy>
    <i name="e_fr_energy">   -100.11224941 </i>
    <i name="e_wo_entrp">   -100.08306680 </i>
    <i name="e_0_energy">   -100.09765810 </i>
   </energy>
  </scstep>
  <scstep>
   <time name="dav">    2.63    2.64</time>
   <time name="total">    2.91    2.93</time>
   <energy>
    <i name="e_fr_energy">   -100.61821768 </i>
    <i name="e_wo_entrp">   -100.57560923 </i>
    <i name="e_0_energy">   -100.59691346 </i>
   </energy>
  </scstep>
  <scstep>
   <time name="dav">    2.63    2.64</time>
   <time name="total">    2.93    2.94</time>
   <energy>
    <i name="e_fr_energy">   -101.52559951 </i>
    <i name="e_wo_entrp">   -101.47348427 </i>
    <i name="e_0_energy">   -101.49954189 </i>
   </energy>
  </scstep>
  <scstep>
   <time name="dav">    2.89    2.90</time>
   <time name="total">    3.20    3.21</time>
   <energy>
    <i name="e_fr_energy">    -99.55270149 </i>
    <i name="e_wo_entrp">    -99.51517908 </i>
    <i name="e_0_energy">    -99.53394029 </i>
   </energy>
  </scstep>
  <scstep>
   <time name="dav">    2.60    2.62</time>
   <time name="total">    2.90    2.92</time>
   <energy>
    <i name="e_fr_energy">    -99.77276091 </i>
    <i name="e_wo_entrp">    -99.73560948 </i>
    <i name="e_0_energy">    -99.75418520 </i>
   </energy>
  </scstep>
  <scstep>
   <time name="dav">    2.49    2.50</time>
   <time name="total">    2.80    2.81</time>
   <energy>
    <i name="e_fr_energy">    -99.70700308 </i>
    <i name="e_wo_entrp">    -99.66223278 </i>
    <i name="e_0_energy">    -99.68461793 </i>
   </energy>
  </scstep>
  <scstep>
   <time name="dav">    2.68    2.69</time>
   <time name="total">    2.97    2.98</time>
   <energy>
    <i name="e_fr_energy">    -99.54237320 </i>
    <i name="e_wo_entrp">    -99.49613922 </i>
    <i name="e_0_energy">    -99.51925621 </i>
   </energy>
  </scstep>
  <scstep>
   <time name="dav">    2.53    2.54</time>
   <time name="total">    2.84    2.85</time>
   <energy>
    <i name="e_fr_energy">    -99.53180612 </i>
    <i name="e_wo_entrp">    -99.48363726 </i>
    <i name="e_0_energy">    -99.50772169 </i>
   </energy>
  </scstep>
  <scstep>
   <time name="dav">    2.56    2.57</time>
   <time name="total">    2.86    2.87</time>
   <energy>
    <i name="e_fr_energy">    -99.51563848 </i>
    <i name="e_wo_entrp">    -99.46060629 </i>
    <i name="e_0_energy">    -99.48812238 </i>
   </energy>
  </scstep>
  <scstep>
   <time name="dav">    2.59    2.60</time>
   <time name="total">    2.89    2.90</time>
   <energy>
    <i name="e_fr_energy">    -99.49928471 </i>
    <i name="e_wo_entrp">    -99.44885877 </i>
    <i name="e_0_energy">    -99.47407174 </i>
   </energy>
  </scstep>
  <scstep>
   <time name="dav">    2.58    2.58</time>
   <time name="total">    2.87    2.87</time>
   <energy>
    <i name="e_fr_energy">    -99.47750986 </i>
    <i name="e_wo_entrp">    -99.42862875 </i>
    <i name="e_0_energy">    -99.45306931 </i>
   </energy>
  </scstep>
  <scstep>
   <time name="dav">    2.57    2.57</time>
   <time name="total">    2.88    2.89</time>
   <energy>
    <i name="e_fr_energy">    -99.46302032 </i>
    <i name="e_wo_entrp">    -99.41259155 </i>
    <i name="e_0_energy">    -99.43780594 </i>
   </energy>
  </scstep>
  <scstep>
   <time name="dav">    2.59    2.61</time>
   <time name="total">    2.90    2.91</time>
   <energy>
    <i name="e_fr_energy">    -99.45219494 </i>
    <i name="e_wo_entrp">    -99.39915266 </i>
    <i name="e_0_energy">    -99.42567380 </i>
   </energy>
  </scstep>
  <scstep>
   <time name="dav">    2.50    2.50</time>
   <time name="total">    2.81    2.82</time>
   <energy>
    <i name="e_fr_energy">    -99.45155299 </i>
    <i name="e_wo_entrp">    -99.39939032 </i>
    <i name="e_0_energy">    -99.42547165 </i>
   </energy>
  </scstep>
  <scstep>
   <time name="dav">    2.54    2.55</time>
   <time name="total">    2.83    2.84</time>
   <energy>
    <i name="e_fr_energy">    -99.44562541 </i>
    <i name="e_wo_entrp">    -99.39262917 </i>
    <i name="e_0_energy">    -99.41912729 </i>
   </energy>
  </scstep>
  <scstep>
   <time name="dav">    2.53    2.54</time>
   <time name="total">    2.85    2.85</time>
   <energy>
    <i name="e_fr_energy">    -99.44171362 </i>
    <i name="e_wo_entrp">    -99.38789902 </i>
    <i name="e_0_energy">    -99.41480632 </i>
   </energy>
  </scstep>
  <scstep>
   <time name="dav">    2.58    2.58</time>
   <time name="total">    2.88    2.89</time>
   <energy>
    <i name="e_fr_energy">    -99.44008589 </i>
    <i name="e_wo_entrp">    -99.38469859 </i>
    <i name="e_0_energy">    -99.41239224 </i>
   </energy>
  </scstep>
  <scstep>
   <time name="dav">    2.53    2.54</time>
   <time name="total">    2.84    2.86</time>
   <energy>
    <i name="e_fr_energy">    -99.43998453 </i>
    <i name="e_wo_entrp">    -99.38338492 </i>
    <i name="e_0_energy">    -99.41168473 </i>
   </energy>
  </scstep>
  <scstep>
   <time name="dav">    1.75    1.75</time>
   <time name="total">    2.06    2.07</time>
   <energy>
    <i name="e_fr_energy">    -99.43944163 </i>
    <i name="e_wo_entrp">    -99.38300181 </i>
    <i name="e_0_energy">    -99.41122172 </i>
   </energy>
  </scstep>
  <scstep>
   <time name="dav">    1.79    1.80</time>
   <time name="total">    2.10    2.11</time>
   <energy>
    <i name="e_fr_energy">    -99.43894460 </i>
    <i name="e_wo_entrp">    -99.38228480 </i>
    <i name="e_0_energy">    -99.41061470 </i>
   </energy>
  </scstep>
  <scstep>
   <time name="dav">    1.54    1.55</time>
   <time name="total">    1.67    1.68</time>
   <energy>
    <i name="alphaZ">    262.47990408 </i>
    <i name="ewald"> 139519.11728289 </i>
    <i name="hartreedc">-151764.51298714 </i>
    <i name="XCdc">     83.10673798 </i>
[...]
        <r>  0.0015  0.0013  0.0009  0.0000  0.0002  0.0045  0.0013  0.0040  0.0004 </r>
        <r>  0.0021  0.0005  0.0001  0.0008  0.0003  0.0079  0.0029  0.0000  0.0000 </r>
        <r>  0.0000  0.0000  0.0061  0.0000  0.0033  0.0000  0.0031  0.0005  0.0010 </r>
        <r>  0.0000  0.0154  0.0000  0.0036  0.0001  0.0216  0.0000  0.0000  0.0000 </r>
        <r>  0.0103  0.0001  0.0042  0.0000  0.0288  0.0003  0.0000  0.0008  0.0065 </r>
        <r>  0.0022  0.0000  0.0005  0.0000  0.0276  0.0002  0.0025  0.0005  0.0126 </r>
        <r>  0.0000  0.0068  0.0000  0.0031  0.0001  0.0000  0.0001  0.0058  0.0001 </r>
        <r>  0.0000  0.0371  0.0000  0.0076  0.0000  0.0000  0.0000  0.0000  0.0000 </r>
        <r>  0.0000  0.0326  0.0000  0.0047  0.0000  0.0000  0.0000  0.0000  0.0000 </r>
       </set>
       <set comment="band 95">
        <r>  0.0233  0.0000  0.0146  0.0001  0.0053  0.0024  0.0009  0.0079  0.0017 </r>
        <r>  0.0026  0.0031  0.0026  0.0000  0.0007  0.0060  0.0027  0.0299  0.0002 </r>
        <r>  0.0032  0.0005  0.0026  0.0026  0.0003  0.0119  0.0026  0.0244  0.0001 </r>
        <r>  0.0028  0.0000  0.0189  0.0000  0.0083  0.0025  0.0106  0.0085  0.0029 </r>
        <r>  0.0006  0.0018  0.0001  0.0048  0.0037  0.0005  0.0029  0.0022  0.0015 </r>
        <r>  0.0332  0.0011  0.0015  0.0015  0.0000  0.0003  0.0350  0.0016  0.0002 </r>
        <r>  0.0314  0.0020  0.0014  0.0001  0.0001  0.0014  0.0360  0.0012  0.0001 </r>
        <r>  0.0056  0.0014  0.0002  0.0042  0.0068  0.0007  0.0000  0.0036  0.0023 </r>
        <r>  0.0093  0.0005  0.0047  0.0015  0.0000  0.0012  0.0098  0.0075  0.0001 </r>
        <r>  0.0183  0.0004  0.0045  0.0016  0.0001  0.0052  0.0188  0.0050  0.0001 </r>
        <r>  0.0149  0.0006  0.0032  0.0013  0.0001  0.0005  0.0220  0.0104  0.0005 </r>
        <r>  0.0114  0.0008  0.0006  0.0026  0.0001  0.0010  0.0083  0.0090  0.0000 </r>
        <r>  0.0001  0.0005  0.0000  0.0031  0.0004  0.0034  0.0004  0.0443  0.0002 </r>
        <r>  0.0022  0.0001  0.0157  0.0000  0.0049  0.0000  0.0056  0.0000  0.0040 </r>
        <r>  0.0114  0.0001  0.0189  0.0002  0.0020  0.0001  0.0021  0.0006  0.0015 </r>
        <r>  0.0004  0.0019  0.0000  0.0001  0.0000  0.0106  0.0004  0.0397  0.0001 </r>
        <r>  0.0000  0.0002  0.0000  0.0112  0.0000  0.0000  0.0000  0.0000  0.0000 </r>
        <r>  0.0000  0.0000  0.0000  0.0160  0.0000  0.0000  0.0000  0.0000  0.0000 </r>
       </set>
       <set comment="band 96">
        <r>  0.0028  0.0180  0.0000  0.0040  0.0026  0.0000  0.0001  0.0078  0.0017 </r>
        <r>  0.0386  0.0012  0.0018  0.0003  0.0570  0.0000  0.0036  0.0012  0.0177 </r>
        <r>  0.0128  0.0011  0.0048  0.0003  0.0618  0.0003  0.0132  0.0001  0.0196 </r>
        <r>  0.0009  0.0148  0.0002  0.0071  0.0045  0.0067  0.0013  0.0026  0.0026 </r>
        <r>  0.0011  0.0082  0.0000  0.0041  0.0014  0.0016  0.0061  0.0026  0.0017 </r>
        <r>  0.0093  0.0000  0.0017  0.0026  0.0262  0.0004  0.0057  0.0001  0.0090 </r>
        <r>  0.0204  0.0010  0.0028  0.0000  0.0289  0.0017  0.0007  0.0015  0.0097 </r>
        <r>  0.0097  0.0104  0.0010  0.0018  0.0009  0.0044  0.0032  0.0002  0.0009 </r>
        <r>  0.0021  0.0026  0.0001  0.0004  0.0011  0.0090  0.0061  0.0005  0.0003 </r>
        <r>  0.0079  0.0000  0.0065  0.0004  0.0062  0.0002  0.0000  0.0038  0.0024 </r>
        <r>  0.0004  0.0010  0.0034  0.0006  0.0056  0.0001  0.0025  0.0000  0.0026 </r>
        <r>  0.0052  0.0015  0.0011  0.0017  0.0007  0.0060  0.0030  0.0033  0.0000 </r>
        <r>  0.0171  0.0000  0.0024  0.0001  0.0504  0.0000  0.0081  0.0001  0.0185 </r>
        <r>  0.0000  0.0153  0.0002  0.0074  0.0000  0.0021  0.0003  0.0031  0.0004 </r>
        <r>  0.0001  0.0188  0.0001  0.0046  0.0000  0.0004  0.0000  0.0072  0.0003 </r>
        <r>  0.0498  0.0000  0.0021  0.0000  0.0532  0.0006  0.0019  0.0014  0.0182 </r>
        <r>  0.0000  0.0001  0.0000  0.0005  0.0000  0.0000  0.0000  0.0000  0.0000 </r>
        <r>  0.0000  0.0001  0.0000  0.0004  0.0000  0.0000  0.0000  0.0000  0.0000 </r>
       </set>
       <set comment="band 97">
        <r>  0.0007  0.0078  0.0009  0.0043  0.0091  0.0065  0.0015  0.0214  0.0047 </r>
        <r>  0.0029  0.0025  0.0115  0.0013  0.0225  0.0008  0.0027  0.0027  0.0062 </r>
        <r>  0.0310  0.0024  0.0197  0.0015  0.0205  0.0033  0.0001  0.0095  0.0053 </r>
        <r>  0.0105  0.0112  0.0023  0.0014  0.0028  0.0044  0.0002  0.0139  0.0022 </r>
        <r>  0.0172  0.0001  0.0128  0.0003  0.0002  0.0096  0.0156  0.0001  0.0005 </r>
        <r>  0.0003  0.0004  0.0054  0.0011  0.0005  0.0081  0.0000  0.0066  0.0002 </r>
        <r>  0.0000  0.0011  0.0018  0.0024  0.0002  0.0001  0.0003  0.0175  0.0000 </r>
        <r>  0.0189  0.0000  0.0016  0.0001  0.0000  0.0030  0.0143  0.0054  0.0000 </r>
        <r>  0.0267  0.0051  0.0000  0.0089  0.0020  0.0000  0.0131  0.0002  0.0005 </r>
        <r>  0.0000  0.0038  0.0000  0.0003  0.0183  0.0016  0.0130  0.0024  0.0095 </r>
        <r>  0.0490  0.0002  0.0000  0.0044  0.0136  0.0003  0.0094  0.0005  0.0053 </r>
        <r>  0.0056  0.0131  0.0001  0.0007  0.0031  0.0002  0.0151  0.0002  0.0017 </r>
        <r>  0.0047  0.0002  0.0061  0.0000  0.0028  0.0013  0.0347  0.0000  0.0013 </r>
        <r>  0.0002  0.0003  0.0000  0.0026  0.0000  0.0012  0.0001  0.0157  0.0000 </r>
        <r>  0.0001  0.0015  0.0001  0.0013  0.0000  0.0121  0.0000  0.0022  0.0000 </r>
        <r>  0.0382  0.0000  0.0186  0.0001  0.0007  0.0002  0.0098  0.0002  0.0001 </r>
        <r>  0.0098  0.0031  0.0053  0.0001  0.0000  0.0000  0.0000  0.0000  0.0000 </r>
        <r>  0.0004  0.0019  0.0031  0.0000  0.0000  0.0000  0.0000  0.0000  0.0000 </r>
       </set>
       <set comment="band 98">
        <r>  0.0309  0.0038  0.0010  0.0026  0.0442  0.0003  0.0007  0.0004  0.0122 </r>
        <r>  0.0059  0.0205  0.0000  0.0059  0.0085  0.0000  0.0003  0.0002  0.0057 </r>
        <r>  0.0081  0.0207  0.0007  0.0058  0.0084  0.0001  0.0001  0.0008  0.0056 </r>
        <r>  0.0285  0.0040  0.0007  0.0023  0.0459  0.0011  0.0009  0.0024  0.0127 </r>
        <r>  0.0003  0.0002  0.0064  0.0000  0.0001  0.0024  0.0004  0.0013  0.0000 </r>
        <r>  0.0001  0.0001  0.0026  0.0001  0.0001  0.0124  0.0001  0.0053  0.0003 </r>
        <r>  0.0002  0.0000  0.0021  0.0003  0.0002  0.0146  0.0000  0.0025  0.0003 </r>
        <r>  0.0001  0.0002  0.0095  0.0001  0.0001  0.0021  0.0000  0.0020  0.0000 </r>
        <r>  0.0239  0.0017  0.0000  0.0008  0.0308  0.0021  0.0006  0.0019  0.0153 </r>
        <r>  0.0011  0.0177  0.0000  0.0086  0.0029  0.0001  0.0001  0.0007  0.0013 </r>
        <r>  0.0035  0.0194  0.0000  0.0069  0.0035  0.0000  0.0001  0.0006  0.0007 </r>
        <r>  0.0313  0.0023  0.0001  0.0006  0.0310  0.0016  0.0000  0.0031  0.0139 </r>
        <r>  0.0000  0.0023  0.0001  0.0011  0.0002  0.0302  0.0008  0.0139  0.0003 </r>
        <r>  0.0004  0.0000  0.0040  0.0000  0.0001  0.0000  0.0032  0.0006  0.0002 </r>
        <r>  0.0012  0.0001  0.0041  0.0001  0.0004  0.0001  0.0026  0.0001  0.0001 </r>
        <r>  0.0011  0.0000  0.0002  0.0001  0.0001  0.0095  0.0000  0.0026  0.0002 </r>
        <r>  0.0001  0.0540  0.0002  0.0285  0.0000  0.0000  0.0000  0.0000  0.0000 </r>
        <r>  0.0000  0.0356  0.0001  0.0183  0.0000  0.0000  0.0000  0.0000  0.0000 </r>
       </set>
       <set comment="band 99">
        <r>  0.0001  0.0001  0.0016  0.0000  0.0000  0.0004  0.0000  0.0010  0.0000 </r>
        <r>  0.0008  0.0000  0.0004  0.0000  0.0000  0.0004  0.0000  0.0015  0.0000 </r>
        <r>  0.0000  0.0000  0.0003  0.0000  0.0004  0.0005  0.0001  0.0017  0.0001 </r>
        <r>  0.0004  0.0001  0.0018  0.0000  0.0000  0.0004  0.0000  0.0013  0.0000 </r>
        <r>  0.0001  0.0001  0.0000  0.0001  0.0001  0.0004  0.0001  0.0029  0.0000 </r>
        <r>  0.0036  0.0000  0.0005  0.0000  0.0000  0.0000  0.0010  0.0000  0.0000 </r>
        <r>  0.0013  0.0000  0.0017  0.0000  0.0002  0.0000  0.0017  0.0001  0.0001 </r>
        <r>  0.0001  0.0000  0.0000  0.0001  0.0001  0.0007  0.0000  0.0025  0.0000 </r>
        <r>  0.0028  0.0000  0.0001  0.0001  0.0008  0.0005  0.0034  0.0010  0.0002 </r>
        <r>  0.0066  0.0000  0.0003  0.0000  0.0005  0.0002  0.0001  0.0026  0.0001 </r>
        <r>  0.0000  0.0003  0.0010  0.0003  0.0006  0.0000  0.0040  0.0004  0.0004 </r>
        <r>  0.0061  0.0001  0.0000  0.0001  0.0000  0.0000  0.0019  0.0012  0.0003 </r>
        <r>  0.0003  0.0011  0.0002  0.0026  0.0001  0.0198  0.0018  0.0422  0.0000 </r>
        <r>  0.0224  0.0001  0.0002  0.0000  0.0051  0.0000  0.0056  0.0002  0.0015 </r>
        <r>  0.0208  0.0000  0.0007  0.0001  0.0000  0.0002  0.0073  0.0000  0.0074 </r>
        <r>  0.0006  0.0011  0.0005  0.0031  0.0000  0.0003  0.0001  0.0004  0.0000 </r>
        <r>  0.0005  0.0863  0.0001  0.2149  0.0000  0.0000  0.0000  0.0000  0.0000 </r>
        <r>  0.0000  0.0469  0.0001  0.1149  0.0000  0.0000  0.0000  0.0000  0.0000 </r>
       </set>
       <set comment="band 100">
        <r>  0.0088  0.0133  0.0028  0.0032  0.0025  0.0082  0.0001  0.0020  0.0017 </r>
        <r>  0.0305  0.0020  0.0236  0.0027  0.0202  0.0046  0.0000  0.0037  0.0060 </r>
        <r>  0.0177  0.0028  0.0017  0.0015  0.0205  0.0002  0.0000  0.0008  0.0064 </r>
        <r>  0.0031  0.0124  0.0001  0.0037  0.0060  0.0000  0.0000  0.0159  0.0030 </r>
        <r>  0.0143  0.0078  0.0021  0.0020  0.0008  0.0054  0.0032  0.0040  0.0018 </r>
        <r>  0.0088  0.0028  0.0029  0.0002  0.0121  0.0011  0.0002  0.0265  0.0037 </r>
        <r>  0.0101  0.0010  0.0091  0.0017  0.0063  0.0036  0.0003  0.0010  0.0019 </r>
        <r>  0.0001  0.0062  0.0151  0.0042  0.0021  0.0106  0.0018  0.0002  0.0036 </r>
        <r>  0.0029  0.0052  0.0005  0.0007  0.0007  0.0134  0.0020  0.0013  0.0003 </r>
        <r>  0.0196  0.0000  0.0194  0.0009  0.0025  0.0002  0.0057  0.0039  0.0015 </r>
        <r>  0.0000  0.0013  0.0030  0.0003  0.0052  0.0054  0.0025  0.0029  0.0040 </r>
        <r>  0.0049  0.0025  0.0059  0.0029  0.0009  0.0063  0.0046  0.0159  0.0006 </r>
        <r>  0.0552  0.0000  0.0121  0.0000  0.0182  0.0005  0.0167  0.0013  0.0072 </r>
        <r>  0.0009  0.0236  0.0000  0.0023  0.0004  0.0000  0.0000  0.0004  0.0000 </r>
        <r>  0.0000  0.0124  0.0000  0.0145  0.0005  0.0014  0.0001  0.0014  0.0000 </r>
        <r>  0.0051  0.0003  0.0018  0.0000  0.0222  0.0003  0.0060  0.0009  0.0102 </r>
        <r>  0.0079  0.0006  0.0033  0.0004  0.0000  0.0000  0.0000  0.0000  0.0000 </r>
        <r>  0.0018  0.0003  0.0035  0.0002  0.0000  0.0000  0.0000  0.0000  0.0000 </r>
       </set>
       <set comment="band 101">
        <r>  0.0155  0.0016  0.0027  0.0013  0.0109  0.0016  0.0000  0.0001  0.0035 </r>
        <r>  0.0040  0.0073  0.0014  0.0019  0.0026  0.0020  0.0000  0.0017  0.0011 </r>
        <r>  0.0038  0.0071  0.0006  0.0020  0.0026  0.0024  0.0000  0.0012  0.0011 </r>
        <r>  0.0162  0.0016  0.0031  0.0013  0.0105  0.0012  0.0000  0.0000  0.0035 </r>
        <r>  0.0101  0.0018  0.0036  0.0010  0.0083  0.0000  0.0003  0.0032  0.0027 </r>
        <r>  0.0028  0.0069  0.0006  0.0029  0.0014  0.0036  0.0001  0.0002  0.0021 </r>
        <r>  0.0032  0.0071  0.0008  0.0029  0.0011  0.0030  0.0001  0.0008  0.0022 </r>
        <r>  0.0115  0.0017  0.0022  0.0011  0.0081  0.0000  0.0004  0.0030  0.0027 </r>
        <r>  0.0007  0.0003  0.0094  0.0000  0.0004  0.0005  0.0001  0.0002  0.0003 </r>
        <r>  0.0000  0.0005  0.0009  0.0001  0.0005  0.0081  0.0002  0.0054  0.0015 </r>
        <r>  0.0001  0.0003  0.0005  0.0002  0.0003  0.0094  0.0001  0.0065  0.0010 </r>
        <r>  0.0006  0.0001  0.0079  0.0001  0.0003  0.0010  0.0000  0.0013  0.0006 </r>
        <r>  0.0001  0.0088  0.0001  0.0034  0.0003  0.0176  0.0001  0.0100  0.0002 </r>
        <r>  0.0678  0.0003  0.0001  0.0000  0.0380  0.0003  0.0024  0.0008  0.0177 </r>
        <r>  0.0737  0.0002  0.0000  0.0000  0.0413  0.0003  0.0018  0.0006  0.0129 </r>
        <r>  0.0000  0.0198  0.0000  0.0074  0.0003  0.0000  0.0000  0.0004  0.0001 </r>
        <r>  0.0000  0.0928  0.0001  0.0383  0.0000  0.0000  0.0000  0.0000  0.0000 </r>
        <r>  0.0000  0.0399  0.0000  0.0169  0.0000  0.0000  0.0000  0.0000  0.0000 </r>
       </set>
       <set comment="band 102">
        <r>  0.0002  0.0004  0.0361  0.0002  0.0000  0.0004  0.0015  0.0037  0.0000 </r>
        <r>  0.0000  0.0000  0.0005  0.0002  0.0006  0.0055  0.0000  0.0148  0.0002 </r>
        <r>  0.0012  0.0001  0.0021  0.0001  0.0000  0.0046  0.0000  0.0165  0.0000 </r>
        <r>  0.0007  0.0000  0.0328  0.0006  0.0000  0.0018  0.0016  0.0022  0.0000 </r>
        <r>  0.0008  0.0004  0.0024  0.0000  0.0009  0.0068  0.0002  0.0246  0.0002 </r>
        <r>  0.0003  0.0003  0.0358  0.0002  0.0008  0.0007  0.0000  0.0023  0.0003 </r>
        <r>  0.0014  0.0000  0.0332  0.0004  0.0001  0.0007  0.0000  0.0019  0.0000 </r>
        <r>  0.0015  0.0002  0.0024  0.0004  0.0004  0.0069  0.0005  0.0228  0.0002 </r>
        <r>  0.0009  0.0000  0.0162  0.0005  0.0001  0.0049  0.0007  0.0148  0.0002 </r>
        <r>  0.0021  0.0000  0.0260  0.0000  0.0000  0.0026  0.0001  0.0081  0.0000 </r>
        <r>  0.0011  0.0000  0.0148  0.0001  0.0007  0.0025  0.0000  0.0103  0.0003 </r>
        <r>  0.0006  0.0002  0.0159  0.0003  0.0002  0.0037  0.0009  0.0173  0.0000 </r>
        <r>  0.0007  0.0005  0.0000  0.0013  0.0000  0.0017  0.0000  0.0066  0.0000 </r>
        <r>  0.0000  0.0000  0.0318  0.0002  0.0007  0.0001  0.0012  0.0002  0.0001 </r>
        <r>  0.0001  0.0001  0.0344  0.0002  0.0000  0.0003  0.0012  0.0001  0.0005 </r>
        <r>  0.0000  0.0000  0.0022  0.0001  0.0002  0.0057  0.0003  0.0177  0.0000 </r>
        <r>  0.0001  0.0035  0.0000  0.0125  0.0000  0.0000  0.0000  0.0000  0.0000 </r>
        <r>  0.0001  0.0000  0.0000  0.0000  0.0000  0.0000  0.0000  0.0000  0.0000 </r>
       </set>
       <set comment="band 103">
        <r>  0.0027  0.0039  0.0001  0.0007  0.0023  0.0017  0.0001  0.0119  0.0001 </r>
        <r>  0.0194  0.0014  0.0005  0.0000  0.0037  0.0002  0.0017  0.0041  0.0020 </r>
        <r>  0.0088  0.0005  0.0378  0.0010  0.0043  0.0036  0.0004  0.0002  0.0022 </r>
        <r>  0.0038  0.0029  0.0065  0.0017  0.0012  0.0136  0.0000  0.0006  0.0000 </r>
        <r>  0.0069  0.0109  0.0131  0.0067  0.0026  0.0000  0.0015  0.0007  0.0009 </r>
        <r>  0.0299  0.0040  0.0002  0.0007  0.0068  0.0011  0.0029  0.0045  0.0029 </r>
        <r>  0.0159  0.0030  0.0002  0.0020  0.0129  0.0046  0.0009  0.0135  0.0053 </r>
        <r>  0.0036  0.0139  0.0140  0.0034  0.0021  0.0001  0.0001  0.0000  0.0007 </r>
        <r>  0.0044  0.0068  0.0094  0.0035  0.0000  0.0010  0.0002  0.0147  0.0011 </r>
        <r>  0.0154  0.0001  0.0002  0.0007  0.0055  0.0020  0.0011  0.0019  0.0014 </r>
        <r>  0.0134  0.0003  0.0293  0.0002  0.0078  0.0005  0.0008  0.0092  0.0021 </r>
        <r>  0.0007  0.0088  0.0030  0.0018  0.0003  0.0114  0.0001  0.0004  0.0021 </r>
        <r>  0.0030  0.0000  0.0003  0.0000  0.0015  0.0003  0.0022  0.0005  0.0001 </r>
        <r>  0.0001  0.0000  0.0009  0.0001  0.0000  0.0004  0.0001  0.0262  0.0004 </r>
        <r>  0.0001  0.0000  0.0013  0.0000  0.0000  0.0163  0.0002  0.0016  0.0004 </r>
        <r>  0.0051  0.0000  0.0587  0.0000  0.0006  0.0007  0.0005  0.0010  0.0000 </r>
        <r>  0.0024  0.0007  0.0022  0.0015  0.0000  0.0000  0.0000  0.0000  0.0000 </r>
        <r>  0.0009  0.0001  0.0002  0.0001  0.0000  0.0000  0.0000  0.0000  0.0000 </r>
       </set>
       <set comment="band 104">
        <r>  0.0176  0.0010  0.0160  0.0001  0.0036  0.0017  0.0002  0.0021  0.0026 </r>
        <r>  0.0046  0.0033  0.0031  0.0015  0.0022  0.0116  0.0001  0.0025  0.0000 </r>
        <r>  0.0042  0.0034  0.0040  0.0013  0.0023  0.0110  0.0000  0.0031  0.0000 </r>
        <r>  0.0181  0.0011  0.0142  0.0001  0.0036  0.0018  0.0002  0.0018  0.0026 </r>
        <r>  0.0338  0.0058  0.0015  0.0009  0.0131  0.0007  0.0034  0.0001  0.0055 </r>
        <r>  0.0079  0.0193  0.0003  0.0074  0.0042  0.0009  0.0010  0.0007  0.0002 </r>
        <r>  0.0077  0.0192  0.0002  0.0072  0.0044  0.0007  0.0011  0.0012  0.0002 </r>
        <r>  0.0357  0.0060  0.0008  0.0007  0.0128  0.0005  0.0039  0.0000  0.0054 </r>
        <r>  0.0437  0.0012  0.0040  0.0003  0.0155  0.0002  0.0027  0.0005  0.0037 </r>
        <r>  0.0032  0.0184  0.0000  0.0056  0.0007  0.0024  0.0001  0.0010  0.0006 </r>
        <r>  0.0036  0.0172  0.0004  0.0056  0.0006  0.0023  0.0002  0.0009  0.0008 </r>
        <r>  0.0460  0.0010  0.0040  0.0002  0.0146  0.0001  0.0027  0.0001  0.0045 </r>
        <r>  0.0000  0.0048  0.0000  0.0010  0.0002  0.0007  0.0000  0.0013  0.0006 </r>
        <r>  0.0375  0.0001  0.0192  0.0001  0.0105  0.0002  0.0001  0.0002  0.0022 </r>
        <r>  0.0356  0.0001  0.0163  0.0001  0.0112  0.0003  0.0001  0.0005  0.0020 </r>
        <r>  0.0001  0.0069  0.0000  0.0014  0.0003  0.0090  0.0000  0.0063  0.0010 </r>
        <r>  0.0000  0.0163  0.0000  0.0030  0.0000  0.0000  0.0000  0.0000  0.0000 </r>
        <r>  0.0000  0.0024  0.0000  0.0004  0.0000  0.0000  0.0000  0.0000  0.0000 </r>
       </set>
      </set>
     </set>
    </set>
   </array>
  </projected>
 </calculation>
 <structure name="finalpos" >
  <crystal>
   <varray name="basis" >
    <v>       5.63307200       0.00000000       0.21554300 </v>
    <v>       2.81241200       4.88076200       0.21554300 </v>
    <v>       0.00000000       0.00000000      36.85793800 </v>
   </varray>
   <i name="volume">   1013.36049145 </i>
   <varray name="rec_basis" >
    <v>       0.17752303      -0.10229302       0.00000000 </v>
    <v>       0.00000000       0.20488604       0.00000000 </v>
    <v>      -0.00103814      -0.00059996       0.02713120 </v>
   </varray>
  </crystal>
  <varray name="positions" >
   <v>       0.01562500       0.14062500       0.40625000 </v>
   <v>       0.01562500       0.64062500       0.40625000 </v>
   <v>       0.51562500       0.14062500       0.40625000 </v>
   <v>       0.51562500       0.64062500       0.40625000 </v>
   <v>       0.17187500       0.29687500       0.46875000 </v>
   <v>       0.17187500       0.79687500       0.46875000 </v>
   <v>       0.67187500       0.29687500       0.46875000 </v>
   <v>       0.67187500       0.79687500       0.46875000 </v>
   <v>       0.34242430       0.40845966       0.53216914 </v>
   <v>       0.34584653       0.90912029       0.53258859 </v>
   <v>       0.84236172       0.40830657       0.53211965 </v>
   <v>       0.84020306       0.90784119       0.53241153 </v>
   <v>       0.51394004       0.00851348       0.60062921 </v>
   <v>       0.51254561       0.51106197       0.59856497 </v>
   <v>       0.01320431       0.01063480       0.59848709 </v>
   <v>       0.01318352       0.51102018       0.59856257 </v>
   <v>       0.50732416       0.00148853       0.65204974 </v>
   <v>       0.49950569      -0.00073245       0.68342943 </v>
  </varray>
  <varray name="selective"  type="logical" >
   <v type="logical" >  F  F  F </v>
   <v type="logical" >  F  F  F </v>
   <v type="logical" >  F  F  F </v>
   <v type="logical" >  F  F  F </v>
   <v type="logical" >  F  F  F </v>
   <v type="logical" >  F  F  F </v>
   <v type="logical" >  F  F  F </v>
   <v type="logical" >  F  F  F </v>
   <v type="logical" >  T  T  T </v>
   <v type="logical" >  T  T  T </v>
   <v type="logical" >  T  T  T </v>
   <v type="logical" >  T  T  T </v>
   <v type="logical" >  T  T  T </v>
   <v type="logical" >  T  T  T </v>
   <v type="logical" >  T  T  T </v>
   <v type="logical" >  T  T  T </v>
   <v type="logical" >  T  T  T </v>
   <v type="logical" >  T  T  T </v>
  </varray>
  <nose>
   <v>      -3.00000000       0.00000000       0.00010000       0.00010000 </v>
  </nose>
 </structure>
</modeling>
