 vasp.6.2.0 18Jan21 (build Feb  1 2022 01:28:57) complex                         
 executed on             LinuxPGI date 2022.05.17  00:41:49
 running on   16 total cores
 distrk:  each k-point on   16 cores,    1 groups
 distr:  one band on NCORE=   4 cores,    4 groups


--------------------------------------------------------------------------------------------------------


 INCAR:
   ALGO = 38
   EDIFF = 0.0001
   EDIFFG = -0.03
   ENCUT = 420
   GGA = Rp
   IBRION = 2
   ISIF = 0
   ISMEAR = 0
   ISPIN = 1
   ISYM = 0
   LASPH = False
   LORBIT = 11
   LREAL = False
   LVTOT = False
   LWAVE = False
   NBANDS = 26
   NCORE = 4
   NELM = 60
   NELMIN = 4
   NSW = 0
   PREC = Normal
   SIGMA = 0.05
   SYMPREC = 1e-05

 POTCAR:    PAW_PBE Pt 04Feb2005                  
 POTCAR:    PAW_PBE Pt 04Feb2005                  
   SHA256 =  3ed90460adef76debcff1cfb73ee1349b515b1a3db03439735b44de3a8db7dc8 Pt/POTCAR             
   COPYR  = (c) Copyright 04Feb2005 Georg Kresse                                                    
   COPYR  = This file is part of the software VASP. Any use, copying, and all other rights are regul
   COPYR  = If you do not have a valid VASP license, you may not use, copy or distribute this file. 
   VRHFIN =Pt: s1d9                                                                                 
   LEXCH  = PE                                                                                      
   EATOM  =   729.1176 eV,   53.5886 Ry                                                             
                                                                                                    
   TITEL  = PAW_PBE Pt 04Feb2005                                                                    
   LULTRA =        F    use ultrasoft PP ?                                                          
   IUNSCR =        1    unscreen: 0-lin 1-nonlin 2-no                                               
   RPACOR =    2.330    partial core radius                                                         
   POMASS =  195.080; ZVAL   =   10.000    mass and valenz                                          
   RCORE  =    2.600    outmost cutoff radius                                                       
   RWIGS  =    2.750; RWIGS  =    1.455    wigner-seitz radius (au A)                               
   ENMAX  =  230.283; ENMIN  =  172.712 eV                                                          
   ICORE  =        3    local potential                                                             
   LCOR   =        T    correct aug charges                                                         
   LPAW   =        T    paw PP                                                                      
   EAUG   =  358.966                                                                                
   DEXC   =    0.000                                                                                
   RMAX   =    2.658    core radius for proj-oper                                                   
   RAUG   =    1.300    factor for augmentation sphere                                              
   RDEP   =    2.761    radius for radial grids                                                     
   RDEPT  =    2.203    core radius for aug-charge                                                  
                                                                                                    
   Atomic configuration                                                                             
   16 entries                                                                                       
     n  l   j            E        occ.                                                              
     1  0  0.50    -78401.1885   2.0000                                                             
     2  0  0.50    -13770.7750   2.0000                                                             
     2  1  1.50    -11931.0468   6.0000                                                             
     3  0  0.50     -3234.7234   2.0000                                                             
     3  1  1.50     -2699.2216   6.0000                                                             
     3  2  2.50     -2119.5714  10.0000                                                             
     4  0  0.50      -695.1528   2.0000                                                             
     4  1  1.50      -519.6034   6.0000                                                             
     4  2  2.50      -306.6786  10.0000                                                             
     4  3  3.50       -70.1041  14.0000                                                             
     5  0  0.50      -101.7747   2.0000                                                             
     5  1  1.50       -55.9873   6.0000                                                             
     5  2  2.50        -6.1423   9.0000                                                             
     6  0  0.50        -5.6573   1.0000                                                             
     6  1  1.50        -6.8029   0.0000                                                             
     5  3  2.50        -1.3606   0.0000                                                             
   Description                                                                                      
     l       E           TYP  RCUT    TYP  RCUT                                                     
     2     -6.1423404     23  2.500                                                                 
     2     -7.5029230     23  2.500                                                                 
     0     -5.6573207     23  2.500                                                                 
     0      0.7416693     23  2.500                                                                 
     1     -2.7211652     23  2.600                                                                 
     1     20.4087390     23  2.600                                                                 
     3     -1.3605826     23  2.500                                                                 
  local pseudopotential read in
  partial core-charges read in
  partial kinetic energy density read in
  atomic valenz-charges read in
  non local Contribution for L=            2  read in
    real space projection operators read in
  non local Contribution for L=            2  read in
    real space projection operators read in
  non local Contribution for L=            0  read in
    real space projection operators read in
  non local Contribution for L=            0  read in
    real space projection operators read in
  non local Contribution for L=            1  read in
    real space projection operators read in
  non local Contribution for L=            1  read in
    real space projection operators read in
    PAW grid and wavefunctions read in
 
   number of l-projection  operators is LMAX  =            6
   number of lm-projection operators is LMMAX =           18
 
 -----------------------------------------------------------------------------
|                                                                             |
|               ----> ADVICE to this user running VASP <----                  |
|                                                                             |
|     You enforced a specific xc type in the INCAR file but a different       |
|     type was found in the POTCAR file.                                      |
|     I HOPE YOU KNOW WHAT YOU ARE DOING!                                     |
|                                                                             |
 -----------------------------------------------------------------------------

  PAW_PBE Pt 04Feb2005                  :
 energy of atom  1       EATOM= -729.1176
 kinetic energy error for atom=    0.0052 (will be added to EATOM!!)
 
 
 POSCAR: Pt4
  positions in direct lattice
  No initial velocities read in
 exchange correlation table for  LEXCH =        9
   RHO(1)=    0.500       N(1)  =     2000
   RHO(2)=  100.500       N(2)  =     4000
 


--------------------------------------------------------------------------------------------------------


 ion  position               nearest neighbor table
   1  0.000  0.000  0.000-   2 2.82   3 2.82   4 2.82   3 2.82   4 2.82   2 2.82   3 2.82   3 2.82
                             2 2.82   4 2.82   4 2.82   2 2.82
   2  0.500  0.500  0.000-   1 2.82   3 2.82   4 2.82   3 2.82   4 2.82   1 2.82   4 2.82   4 2.82
                             1 2.82   3 2.82   3 2.82   1 2.82
   3  0.000  0.500  0.000-   1 2.82   2 2.82   4 2.82   1 2.82   2 2.82   1 2.82   4 2.82   1 2.82
                             2 2.82   4 2.82   2 2.82   4 2.82
   4  0.500  0.000  0.000-   1 2.82   2 2.82   3 2.82   1 2.82   2 2.82   2 2.82   3 2.82   2 2.82
                             1 2.82   3 2.82   1 2.82   3 2.82
 

IMPORTANT INFORMATION: All symmetrisations will be switched off!
NOSYMM: (Re-)initialisation of all symmetry stuff for point group C_1.


----------------------------------------------------------------------------------------

                                     Primitive cell                                     

  volume of cell :      63.3350

  direct lattice vectors                    reciprocal lattice vectors
    -3.986098000  3.986098000  0.000000000     0.000000000  0.250871905 -0.000000000
    -3.986098000  0.000000000  3.986098000     0.000000000 -0.000000000  0.250871905
     3.986098000  0.000000000  0.000000000     0.250871905  0.250871905  0.250871905

  length of vectors
     5.637193853  5.637193853  3.986098000     0.250871905  0.250871905  0.434522886

  position of ions in fractional coordinates (direct lattice)
     0.000000000  0.000000000  0.000000000
     0.500000000  0.500000000  0.000000000
     0.000000000  0.500000000  0.000000000
     0.500000000  0.000000000  0.000000000

  ion indices of the primitive-cell ions
   primitive index   ion index
                 1           1
                 2           2
                 3           3
                 4           4

----------------------------------------------------------------------------------------

 
 
 KPOINTS: Automatic kpoint scheme                 

Automatic generation of k-mesh.
 Grid dimensions read from file:
 generate k-points for:    8    8    8

 Generating k-lattice:

  Cartesian coordinates                     Fractional coordinates (reciprocal lattice)
     0.000000000  0.031358988 -0.000000000     0.125000000  0.000000000  0.000000000
     0.000000000 -0.000000000  0.031358988     0.000000000  0.125000000  0.000000000
     0.031358988  0.031358988  0.031358988     0.000000000  0.000000000  0.125000000

  Length of vectors
     0.031358988  0.031358988  0.054315361

  Shift w.r.t. Gamma in fractional coordinates (k-lattice)
     0.000000000  0.000000000  0.000000000

 
 Subroutine IBZKPT returns following result:
 ===========================================
 
 Found    260 irreducible k-points:
 
 Following reciprocal coordinates:
            Coordinates               Weight
  0.000000  0.000000  0.000000      1.000000
  0.125000  0.000000  0.000000      2.000000
  0.000000  0.125000  0.000000      2.000000
 -0.125000 -0.125000  0.125000      2.000000
  0.250000  0.000000  0.000000      2.000000
  0.000000  0.250000  0.000000      2.000000
 -0.250000 -0.250000  0.250000      2.000000
  0.375000  0.000000  0.000000      2.000000
  0.000000  0.375000  0.000000      2.000000
 -0.375000 -0.375000  0.375000      2.000000
  0.500000  0.000000  0.000000      1.000000
  0.000000  0.500000  0.000000      1.000000
  0.500000  0.500000  0.500000      1.000000
  0.125000  0.125000  0.000000      2.000000
 -0.125000  0.000000  0.125000      2.000000
  0.000000 -0.125000  0.125000      2.000000
 -0.125000  0.125000  0.000000      2.000000
 -0.250000 -0.125000  0.125000      2.000000
 -0.125000 -0.250000  0.125000      2.000000
  0.250000  0.125000  0.000000      2.000000
 -0.125000  0.125000  0.125000      2.000000
 -0.125000 -0.250000  0.250000      2.000000
 -0.125000  0.250000  0.000000      2.000000
 -0.375000 -0.125000  0.125000      2.000000
 -0.250000 -0.125000  0.250000      2.000000
 -0.125000 -0.375000  0.125000      2.000000
 -0.375000 -0.250000  0.250000      2.000000
  0.125000 -0.125000  0.125000      2.000000
 -0.250000 -0.375000  0.250000      2.000000
  0.250000 -0.125000  0.000000      2.000000
  0.125000  0.250000  0.000000      2.000000
  0.375000  0.125000  0.000000      2.000000
 -0.125000  0.250000  0.125000      2.000000
 -0.250000 -0.375000  0.375000      2.000000
 -0.125000  0.375000  0.000000      2.000000
  0.500000 -0.125000  0.125000      2.000000
 -0.375000 -0.250000  0.375000      2.000000
 -0.125000  0.500000  0.125000      2.000000
  0.500000 -0.375000  0.375000      2.000000
  0.250000 -0.125000  0.125000      2.000000
 -0.375000  0.500000  0.375000      2.000000
  0.375000 -0.125000  0.000000      2.000000
  0.125000  0.375000  0.000000      2.000000
  0.500000  0.125000  0.000000      2.000000
 -0.125000  0.375000  0.125000      2.000000
 -0.375000  0.500000  0.500000      2.000000
 -0.125000  0.500000  0.000000      2.000000
  0.375000 -0.125000  0.125000      2.000000
  0.500000 -0.375000  0.500000      2.000000
  0.250000  0.250000  0.000000      2.000000
 -0.250000  0.000000  0.250000      2.000000
  0.000000 -0.250000  0.250000      2.000000
 -0.250000  0.250000  0.000000      2.000000
  0.500000 -0.250000  0.250000      2.000000
 -0.250000  0.500000  0.250000      2.000000
  0.375000  0.250000  0.000000      2.000000
 -0.250000  0.125000  0.250000      2.000000
 -0.125000 -0.375000  0.375000      2.000000
 -0.250000  0.375000  0.000000      2.000000
  0.375000 -0.250000  0.250000      2.000000
 -0.375000 -0.125000  0.375000      2.000000
 -0.250000  0.375000  0.250000      2.000000
  0.375000 -0.375000  0.375000      2.000000
  0.125000 -0.250000  0.250000      2.000000
 -0.375000  0.375000  0.375000      2.000000
  0.375000 -0.250000  0.000000      2.000000
  0.250000  0.375000  0.000000      2.000000
  0.500000  0.250000  0.000000      2.000000
 -0.250000  0.250000  0.250000      2.000000
 -0.250000  0.500000  0.500000      2.000000
 -0.250000  0.500000  0.000000      2.000000
  0.250000 -0.250000  0.250000      2.000000
  0.500000 -0.250000  0.500000      2.000000
  0.375000  0.375000  0.000000      2.000000
 -0.375000  0.000000  0.375000      2.000000
  0.000000 -0.375000  0.375000      2.000000
 -0.375000  0.375000  0.000000      2.000000
  0.250000 -0.375000  0.375000      2.000000
 -0.375000  0.250000  0.375000      2.000000
  0.500000  0.375000  0.000000      2.000000
 -0.375000  0.125000  0.375000      2.000000
 -0.125000  0.500000  0.500000      2.000000
 -0.375000  0.500000  0.000000      2.000000
  0.125000 -0.375000  0.375000      2.000000
  0.500000 -0.125000  0.500000      2.000000
  0.500000  0.500000  0.000000      1.000000
  0.500000  0.000000  0.500000      1.000000
  0.000000  0.500000  0.500000      1.000000
  0.000000  0.000000  0.125000      2.000000
 -0.250000  0.000000  0.125000      2.000000
 -0.250000 -0.250000  0.125000      2.000000
  0.000000 -0.250000  0.125000      2.000000
  0.125000  0.000000  0.125000      2.000000
  0.000000  0.125000  0.125000      2.000000
 -0.125000 -0.125000  0.250000      2.000000
 -0.250000  0.125000  0.125000      2.000000
 -0.375000  0.000000  0.125000      2.000000
 -0.375000 -0.125000  0.250000      2.000000
 -0.375000 -0.250000  0.125000      2.000000
 -0.250000 -0.375000  0.125000      2.000000
 -0.375000 -0.375000  0.250000      2.000000
  0.000000 -0.375000  0.125000      2.000000
  0.125000 -0.250000  0.125000      2.000000
 -0.125000 -0.375000  0.250000      2.000000
  0.250000  0.000000  0.125000      2.000000
  0.000000  0.250000  0.125000      2.000000
 -0.250000 -0.250000  0.375000      2.000000
 -0.250000  0.250000  0.125000      2.000000
  0.500000  0.000000  0.125000      2.000000
  0.500000 -0.250000  0.375000      2.000000
  0.500000 -0.250000  0.125000      2.000000
 -0.250000  0.500000  0.125000      2.000000
  0.500000  0.500000  0.375000      2.000000
  0.000000  0.500000  0.125000      2.000000
  0.250000 -0.250000  0.125000      2.000000
 -0.250000  0.500000  0.375000      2.000000
  0.375000  0.000000  0.125000      2.000000
  0.000000  0.375000  0.125000      2.000000
 -0.375000 -0.375000  0.500000      2.000000
 -0.250000  0.375000  0.125000      2.000000
  0.375000 -0.375000  0.500000      2.000000
  0.375000 -0.250000  0.125000      2.000000
  0.125000  0.125000  0.125000      2.000000
 -0.125000  0.000000  0.250000      2.000000
  0.000000 -0.125000  0.250000      2.000000
 -0.375000  0.125000  0.125000      2.000000
  0.500000 -0.125000  0.250000      2.000000
 -0.375000  0.000000  0.250000      2.000000
 -0.375000 -0.375000  0.125000      2.000000
 -0.375000  0.500000  0.250000      2.000000
  0.500000 -0.375000  0.250000      2.000000
  0.125000 -0.375000  0.125000      2.000000
  0.000000 -0.375000  0.250000      2.000000
 -0.125000  0.500000  0.250000      2.000000
  0.250000  0.125000  0.125000      2.000000
 -0.125000  0.125000  0.250000      2.000000
 -0.125000 -0.250000  0.375000      2.000000
 -0.375000  0.250000  0.125000      2.000000
  0.375000 -0.125000  0.250000      2.000000
  0.500000 -0.125000  0.375000      2.000000
  0.500000 -0.375000  0.125000      2.000000
 -0.375000  0.375000  0.250000      2.000000
  0.375000  0.500000  0.375000      2.000000
  0.125000  0.500000  0.125000      2.000000
  0.125000 -0.375000  0.250000      2.000000
 -0.250000  0.375000  0.375000      2.000000
  0.375000 -0.125000 -0.250000      2.000000
 -0.375000  0.250000 -0.375000      2.000000
  0.500000 -0.125000 -0.125000      2.000000
  0.500000 -0.375000 -0.375000      2.000000
  0.375000  0.500000 -0.125000      2.000000
 -0.375000  0.375000 -0.250000      2.000000
  0.125000  0.500000 -0.375000      2.000000
 -0.250000  0.375000 -0.125000      2.000000
  0.125000 -0.375000 -0.250000      2.000000
 -0.125000  0.125000 -0.250000      2.000000
 -0.125000 -0.250000 -0.125000      2.000000
  0.250000  0.125000 -0.375000      2.000000
  0.375000  0.125000  0.125000      2.000000
 -0.125000  0.250000  0.250000      2.000000
 -0.250000 -0.375000  0.500000      2.000000
 -0.375000  0.375000  0.125000      2.000000
  0.250000 -0.125000  0.250000      2.000000
  0.375000 -0.250000  0.500000      2.000000
  0.375000 -0.375000  0.125000      2.000000
 -0.375000  0.250000  0.250000      2.000000
  0.125000  0.375000  0.125000      2.000000
  0.250000 -0.375000  0.250000      2.000000
 -0.250000  0.375000  0.500000      2.000000
 -0.375000 -0.250000  0.500000      2.000000
  0.250000  0.250000  0.125000      2.000000
 -0.250000  0.000000  0.375000      2.000000
  0.000000 -0.250000  0.375000      2.000000
  0.500000  0.250000  0.125000      2.000000
  0.250000 -0.250000  0.375000      2.000000
  0.500000  0.000000  0.375000      2.000000
  0.500000  0.500000  0.125000      2.000000
  0.500000  0.250000  0.375000      2.000000
  0.250000  0.500000  0.375000      2.000000
  0.250000  0.500000  0.125000      2.000000
  0.000000  0.500000  0.375000      2.000000
 -0.250000  0.250000  0.375000      2.000000
  0.375000  0.250000  0.125000      2.000000
 -0.250000  0.125000  0.375000      2.000000
 -0.125000 -0.375000  0.500000      2.000000
  0.500000  0.375000  0.125000      2.000000
  0.125000 -0.250000  0.375000      2.000000
  0.375000 -0.125000  0.500000      2.000000
  0.375000  0.500000  0.125000      2.000000
  0.500000  0.125000  0.375000      2.000000
  0.250000  0.375000  0.125000      2.000000
  0.125000  0.500000  0.375000      2.000000
 -0.125000  0.375000  0.500000      2.000000
 -0.375000 -0.125000  0.500000      2.000000
  0.375000  0.375000  0.125000      2.000000
 -0.375000  0.000000  0.500000      2.000000
  0.000000 -0.375000  0.500000      2.000000
  0.000000  0.000000  0.250000      2.000000
  0.500000  0.000000  0.250000      2.000000
  0.500000  0.500000  0.250000      2.000000
  0.000000  0.500000  0.250000      2.000000
  0.125000  0.000000  0.250000      2.000000
  0.000000  0.125000  0.250000      2.000000
 -0.125000 -0.125000  0.375000      2.000000
  0.500000  0.125000  0.250000      2.000000
  0.375000  0.000000  0.250000      2.000000
  0.375000 -0.125000  0.375000      2.000000
  0.375000  0.500000  0.250000      2.000000
  0.500000  0.375000  0.250000      2.000000
  0.375000  0.375000  0.375000      2.000000
  0.000000  0.375000  0.250000      2.000000
  0.125000  0.500000  0.250000      2.000000
 -0.125000  0.375000  0.375000      2.000000
  0.250000  0.000000  0.250000      2.000000
  0.000000  0.250000  0.250000      2.000000
 -0.250000 -0.250000  0.500000      2.000000
  0.500000  0.250000  0.250000      2.000000
  0.250000 -0.250000  0.500000      2.000000
  0.250000  0.500000  0.250000      2.000000
  0.125000  0.125000  0.250000      2.000000
 -0.125000  0.000000  0.375000      2.000000
  0.000000 -0.125000  0.375000      2.000000
  0.375000  0.125000  0.250000      2.000000
  0.250000 -0.125000  0.375000      2.000000
  0.375000  0.000000  0.375000      2.000000
  0.375000  0.375000  0.250000      2.000000
  0.375000  0.250000  0.375000      2.000000
  0.250000  0.375000  0.375000      2.000000
  0.125000  0.375000  0.250000      2.000000
  0.000000  0.375000  0.375000      2.000000
 -0.125000  0.250000  0.375000      2.000000
  0.250000  0.125000  0.250000      2.000000
 -0.125000  0.125000  0.375000      2.000000
 -0.125000 -0.250000  0.500000      2.000000
  0.375000  0.250000  0.250000      2.000000
  0.125000 -0.125000  0.375000      2.000000
  0.250000 -0.125000  0.500000      2.000000
  0.250000  0.375000  0.250000      2.000000
  0.375000  0.125000  0.375000      2.000000
  0.125000  0.250000  0.250000      2.000000
  0.125000  0.375000  0.375000      2.000000
 -0.125000  0.250000  0.500000      2.000000
 -0.250000 -0.125000  0.500000      2.000000
  0.250000  0.250000  0.250000      2.000000
 -0.250000  0.000000  0.500000      2.000000
  0.000000 -0.250000  0.500000      2.000000
  0.000000  0.000000  0.375000      2.000000
  0.250000  0.000000  0.375000      2.000000
  0.250000  0.250000  0.375000      2.000000
  0.000000  0.250000  0.375000      2.000000
  0.125000  0.000000  0.375000      2.000000
  0.000000  0.125000  0.375000      2.000000
 -0.125000 -0.125000  0.500000      2.000000
  0.250000  0.125000  0.375000      2.000000
  0.125000 -0.125000  0.500000      2.000000
  0.125000  0.250000  0.375000      2.000000
  0.125000  0.125000  0.375000      2.000000
 -0.125000  0.000000  0.500000      2.000000
  0.000000 -0.125000  0.500000      2.000000
  0.000000  0.000000  0.500000      1.000000
 
 Following cartesian coordinates:
            Coordinates               Weight
  0.000000  0.000000  0.000000      1.000000
  0.000000  0.031359  0.000000      2.000000
  0.000000  0.000000  0.031359      2.000000
  0.031359  0.000000  0.000000      2.000000
  0.000000  0.062718  0.000000      2.000000
  0.000000  0.000000  0.062718      2.000000
  0.062718  0.000000  0.000000      2.000000
  0.000000  0.094077  0.000000      2.000000
  0.000000  0.000000  0.094077      2.000000
  0.094077  0.000000  0.000000      2.000000
  0.000000  0.125436  0.000000      1.000000
  0.000000  0.000000  0.125436      1.000000
  0.125436  0.250872  0.250872      1.000000
  0.000000  0.031359  0.031359      2.000000
  0.031359  0.000000  0.031359      2.000000
  0.031359  0.031359  0.000000      2.000000
  0.000000 -0.031359  0.031359      2.000000
  0.031359 -0.031359  0.000000      2.000000
  0.031359 -0.000000 -0.031359      2.000000
  0.000000  0.062718  0.031359      2.000000
  0.031359  0.000000  0.062718      2.000000
  0.062718  0.031359  0.000000      2.000000
  0.000000 -0.031359  0.062718      2.000000
  0.031359 -0.062718  0.000000      2.000000
  0.062718 -0.000000  0.031359      2.000000
  0.031359 -0.000000 -0.062718      2.000000
  0.062718 -0.031359 -0.000000      2.000000
  0.031359  0.062718 -0.000000      2.000000
  0.062718  0.000000 -0.031359      2.000000
  0.000000  0.062718 -0.031359      2.000000
  0.000000  0.031359  0.062718      2.000000
  0.000000  0.094077  0.031359      2.000000
  0.031359  0.000000  0.094077      2.000000
  0.094077  0.031359  0.000000      2.000000
  0.000000 -0.031359  0.094077      2.000000
  0.031359  0.156795  0.000000      2.000000
  0.094077 -0.000000  0.031359      2.000000
  0.031359 -0.000000  0.156795      2.000000
  0.094077  0.219513 -0.000000      2.000000
  0.031359  0.094077 -0.000000      2.000000
  0.094077  0.000000  0.219513      2.000000
  0.000000  0.094077 -0.031359      2.000000
  0.000000  0.031359  0.094077      2.000000
  0.000000  0.125436  0.031359      2.000000
  0.031359  0.000000  0.125436      2.000000
  0.125436  0.031359  0.250872      2.000000
  0.000000 -0.031359  0.125436      2.000000
  0.031359  0.125436  0.000000      2.000000
  0.125436  0.250872  0.031359      2.000000
  0.000000  0.062718  0.062718      2.000000
  0.062718  0.000000  0.062718      2.000000
  0.062718  0.062718  0.000000      2.000000
  0.000000 -0.062718  0.062718      2.000000
  0.062718  0.188154  0.000000      2.000000
  0.062718 -0.000000  0.188154      2.000000
  0.000000  0.094077  0.062718      2.000000
  0.062718  0.000000  0.094077      2.000000
  0.094077  0.062718  0.000000      2.000000
  0.000000 -0.062718  0.094077      2.000000
  0.062718  0.156795  0.000000      2.000000
  0.094077 -0.000000  0.062718      2.000000
  0.062718 -0.000000  0.156795      2.000000
  0.094077  0.188154 -0.000000      2.000000
  0.062718  0.094077 -0.000000      2.000000
  0.094077  0.000000  0.188154      2.000000
  0.000000  0.094077 -0.062718      2.000000
  0.000000  0.062718  0.094077      2.000000
  0.000000  0.125436  0.062718      2.000000
  0.062718  0.000000  0.125436      2.000000
  0.125436  0.062718  0.250872      2.000000
  0.000000 -0.062718  0.125436      2.000000
  0.062718  0.125436  0.000000      2.000000
  0.125436  0.250872  0.062718      2.000000
  0.000000  0.094077  0.094077      2.000000
  0.094077  0.000000  0.094077      2.000000
  0.094077  0.094077  0.000000      2.000000
  0.000000 -0.094077  0.094077      2.000000
  0.094077  0.156795  0.000000      2.000000
  0.094077 -0.000000  0.156795      2.000000
  0.000000  0.125436  0.094077      2.000000
  0.094077  0.000000  0.125436      2.000000
  0.125436  0.094077  0.250872      2.000000
  0.000000 -0.094077  0.125436      2.000000
  0.094077  0.125436  0.000000      2.000000
  0.125436  0.250872  0.094077      2.000000
  0.000000  0.125436  0.125436      1.000000
  0.125436  0.250872  0.125436      1.000000
  0.125436  0.125436  0.250872      1.000000
  0.031359  0.031359  0.031359      2.000000
  0.031359 -0.031359  0.031359      2.000000
  0.031359 -0.031359 -0.031359      2.000000
  0.031359  0.031359 -0.031359      2.000000
  0.031359  0.062718  0.031359      2.000000
  0.031359  0.031359  0.062718      2.000000
  0.062718  0.031359  0.031359      2.000000
  0.031359 -0.031359  0.062718      2.000000
  0.031359 -0.062718  0.031359      2.000000
  0.062718 -0.031359  0.031359      2.000000
  0.031359 -0.062718 -0.031359      2.000000
  0.031359 -0.031359 -0.062718      2.000000
  0.062718 -0.031359 -0.031359      2.000000
  0.031359  0.031359 -0.062718      2.000000
  0.031359  0.062718 -0.031359      2.000000
  0.062718  0.031359 -0.031359      2.000000
  0.031359  0.094077  0.031359      2.000000
  0.031359  0.031359  0.094077      2.000000
  0.094077  0.031359  0.031359      2.000000
  0.031359 -0.031359  0.094077      2.000000
  0.031359  0.156795  0.031359      2.000000
  0.094077  0.219513  0.031359      2.000000
  0.031359  0.156795 -0.031359      2.000000
  0.031359 -0.031359  0.156795      2.000000
  0.094077  0.219513  0.219513      2.000000
  0.031359  0.031359  0.156795      2.000000
  0.031359  0.094077 -0.031359      2.000000
  0.094077  0.031359  0.219513      2.000000
  0.031359  0.125436  0.031359      2.000000
  0.031359  0.031359  0.125436      2.000000
  0.125436  0.031359  0.031359      2.000000
  0.031359 -0.031359  0.125436      2.000000
  0.125436  0.219513  0.031359      2.000000
  0.031359  0.125436 -0.031359      2.000000
  0.031359  0.062718  0.062718      2.000000
  0.062718  0.031359  0.062718      2.000000
  0.062718  0.062718  0.031359      2.000000
  0.031359 -0.062718  0.062718      2.000000
  0.062718  0.188154  0.031359      2.000000
  0.062718 -0.031359  0.062718      2.000000
  0.031359 -0.062718 -0.062718      2.000000
  0.062718 -0.031359  0.188154      2.000000
  0.062718  0.188154 -0.031359      2.000000
  0.031359  0.062718 -0.062718      2.000000
  0.062718  0.062718 -0.031359      2.000000
  0.062718  0.031359  0.188154      2.000000
  0.031359  0.094077  0.062718      2.000000
  0.062718  0.031359  0.094077      2.000000
  0.094077  0.062718  0.031359      2.000000
  0.031359 -0.062718  0.094077      2.000000
  0.062718  0.156795  0.031359      2.000000
  0.094077  0.219513  0.062718      2.000000
  0.031359  0.156795 -0.062718      2.000000
  0.062718 -0.031359  0.156795      2.000000
  0.094077  0.188154  0.219513      2.000000
  0.031359  0.062718  0.156795      2.000000
  0.062718  0.094077 -0.031359      2.000000
  0.094077  0.031359  0.188154      2.000000
 -0.062718  0.031359 -0.094077      2.000000
 -0.094077 -0.188154 -0.031359      2.000000
 -0.031359  0.094077 -0.062718      2.000000
 -0.094077  0.031359 -0.188154      2.000000
 -0.031359  0.062718  0.094077      2.000000
 -0.062718 -0.156795  0.031359      2.000000
 -0.094077 -0.062718  0.031359      2.000000
 -0.031359 -0.094077  0.062718      2.000000
 -0.062718 -0.031359 -0.156795      2.000000
 -0.062718 -0.094077 -0.031359      2.000000
 -0.031359 -0.062718 -0.094077      2.000000
 -0.094077 -0.031359 -0.062718      2.000000
  0.031359  0.125436  0.062718      2.000000
  0.062718  0.031359  0.125436      2.000000
  0.125436  0.062718  0.031359      2.000000
  0.031359 -0.062718  0.125436      2.000000
  0.062718  0.125436  0.031359      2.000000
  0.125436  0.219513  0.062718      2.000000
  0.031359  0.125436 -0.062718      2.000000
  0.062718 -0.031359  0.125436      2.000000
  0.031359  0.062718  0.125436      2.000000
  0.062718  0.125436 -0.031359      2.000000
  0.125436  0.062718  0.219513      2.000000
  0.125436  0.031359  0.062718      2.000000
  0.031359  0.094077  0.094077      2.000000
  0.094077  0.031359  0.094077      2.000000
  0.094077  0.094077  0.031359      2.000000
  0.031359  0.156795  0.094077      2.000000
  0.094077  0.156795  0.031359      2.000000
  0.094077  0.219513  0.094077      2.000000
  0.031359  0.156795  0.156795      2.000000
  0.094077  0.219513  0.156795      2.000000
  0.094077  0.156795  0.219513      2.000000
  0.031359  0.094077  0.156795      2.000000
  0.094077  0.094077  0.219513      2.000000
  0.094077  0.031359  0.156795      2.000000
  0.031359  0.125436  0.094077      2.000000
  0.094077  0.031359  0.125436      2.000000
  0.125436  0.094077  0.031359      2.000000
  0.031359  0.156795  0.125436      2.000000
  0.094077  0.125436  0.031359      2.000000
  0.125436  0.219513  0.094077      2.000000
  0.031359  0.125436  0.156795      2.000000
  0.094077  0.219513  0.125436      2.000000
  0.031359  0.094077  0.125436      2.000000
  0.094077  0.125436  0.219513      2.000000
  0.125436  0.094077  0.219513      2.000000
  0.125436  0.031359  0.094077      2.000000
  0.031359  0.125436  0.125436      2.000000
  0.125436  0.031359  0.125436      2.000000
  0.125436  0.125436  0.031359      2.000000
  0.062718  0.062718  0.062718      2.000000
  0.062718  0.188154  0.062718      2.000000
  0.062718  0.188154  0.188154      2.000000
  0.062718  0.062718  0.188154      2.000000
  0.062718  0.094077  0.062718      2.000000
  0.062718  0.062718  0.094077      2.000000
  0.094077  0.062718  0.062718      2.000000
  0.062718  0.188154  0.094077      2.000000
  0.062718  0.156795  0.062718      2.000000
  0.094077  0.188154  0.062718      2.000000
  0.062718  0.156795  0.188154      2.000000
  0.062718  0.188154  0.156795      2.000000
  0.094077  0.188154  0.188154      2.000000
  0.062718  0.062718  0.156795      2.000000
  0.062718  0.094077  0.188154      2.000000
  0.094077  0.062718  0.188154      2.000000
  0.062718  0.125436  0.062718      2.000000
  0.062718  0.062718  0.125436      2.000000
  0.125436  0.062718  0.062718      2.000000
  0.062718  0.188154  0.125436      2.000000
  0.125436  0.188154  0.062718      2.000000
  0.062718  0.125436  0.188154      2.000000
  0.062718  0.094077  0.094077      2.000000
  0.094077  0.062718  0.094077      2.000000
  0.094077  0.094077  0.062718      2.000000
  0.062718  0.156795  0.094077      2.000000
  0.094077  0.156795  0.062718      2.000000
  0.094077  0.188154  0.094077      2.000000
  0.062718  0.156795  0.156795      2.000000
  0.094077  0.188154  0.156795      2.000000
  0.094077  0.156795  0.188154      2.000000
  0.062718  0.094077  0.156795      2.000000
  0.094077  0.094077  0.188154      2.000000
  0.094077  0.062718  0.156795      2.000000
  0.062718  0.125436  0.094077      2.000000
  0.094077  0.062718  0.125436      2.000000
  0.125436  0.094077  0.062718      2.000000
  0.062718  0.156795  0.125436      2.000000
  0.094077  0.125436  0.062718      2.000000
  0.125436  0.188154  0.094077      2.000000
  0.062718  0.125436  0.156795      2.000000
  0.094077  0.188154  0.125436      2.000000
  0.062718  0.094077  0.125436      2.000000
  0.094077  0.125436  0.188154      2.000000
  0.125436  0.094077  0.188154      2.000000
  0.125436  0.062718  0.094077      2.000000
  0.062718  0.125436  0.125436      2.000000
  0.125436  0.062718  0.125436      2.000000
  0.125436  0.125436  0.062718      2.000000
  0.094077  0.094077  0.094077      2.000000
  0.094077  0.156795  0.094077      2.000000
  0.094077  0.156795  0.156795      2.000000
  0.094077  0.094077  0.156795      2.000000
  0.094077  0.125436  0.094077      2.000000
  0.094077  0.094077  0.125436      2.000000
  0.125436  0.094077  0.094077      2.000000
  0.094077  0.156795  0.125436      2.000000
  0.125436  0.156795  0.094077      2.000000
  0.094077  0.125436  0.156795      2.000000
  0.094077  0.125436  0.125436      2.000000
  0.125436  0.094077  0.125436      2.000000
  0.125436  0.125436  0.094077      2.000000
  0.125436  0.125436  0.125436      1.000000
 
 -----------------------------------------------------------------------------
|                                                                             |
|           W    W    AA    RRRRR   N    N  II  N    N   GGGG   !!!           |
|           W    W   A  A   R    R  NN   N  II  NN   N  G    G  !!!           |
|           W    W  A    A  R    R  N N  N  II  N N  N  G       !!!           |
|           W WW W  AAAAAA  RRRRR   N  N N  II  N  N N  G  GGG   !            |
|           WW  WW  A    A  R   R   N   NN  II  N   NN  G    G                |
|           W    W  A    A  R    R  N    N  II  N    N   GGGG   !!!           |
|                                                                             |
|     The number of bands has been changed from the values supplied in        |
|     the INCAR file. This is a result of running the parallel version.       |
|     The orbitals not found in the WAVECAR file will be initialized with     |
|     random numbers, which is usually adequate. For correlated               |
|     calculations, however, you should redo the groundstate calculation.     |
|     I found NBANDS = 26. Now, NBANDS = 28.                                  |
|                                                                             |
 -----------------------------------------------------------------------------



--------------------------------------------------------------------------------------------------------




 Dimension of arrays:
   k-points           NKPTS =    260   k-points in BZ     NKDIM =    260   number of bands    NBANDS=     28
   number of dos      NEDOS =    301   number of ions     NIONS =      4
   non local maximal  LDIM  =      6   non local SUM 2l+1 LMDIM =     18
   total plane-waves  NPLWV =  15680
   max r-space proj   IRMAX =      1   max aug-charges    IRDMAX=  15193
   dimension x,y,z NGX =    28 NGY =   28 NGZ =   20
   dimension x,y,z NGXF=    56 NGYF=   56 NGZF=   40
   support grid    NGXF=    56 NGYF=   56 NGZF=   40
   ions per type =               4
   NGX,Y,Z   is equivalent  to a cutoff of   8.26,  8.26,  8.34 a.u.
   NGXF,Y,Z  is equivalent  to a cutoff of  16.51, 16.51, 16.68 a.u.

 SYSTEM =  unknown system                          
 POSCAR =  Pt4                                     

 Startparameter for this run:
   NWRITE =      2    write-flag & timer
   PREC   = normal    normal or accurate (medium, high low for compatibility)
   ISTART =      0    job   : 0-new  1-cont  2-samecut
   ICHARG =      2    charge: 1-file 2-atom 10-const
   ISPIN  =      1    spin polarized calculation?
   LNONCOLLINEAR =      F non collinear calculations
   LSORBIT =      F    spin-orbit coupling
   INIWAV =      1    electr: 0-lowe 1-rand  2-diag
   LASPH  =      F    aspherical Exc in radial PAW
   METAGGA=      F    non-selfconsistent MetaGGA calc.

 Electronic Relaxation 1
   ENCUT  =  420.0 eV  30.87 Ry    5.56 a.u.   9.42  9.42  6.66*2*pi/ulx,y,z
   ENINI  =  420.0     initial cutoff
   ENAUG  =  359.0 eV  augmentation charge cutoff
   NELM   =     60;   NELMIN=  4; NELMDL=  0     # of ELM steps 
   EDIFF  = 0.1E-03   stopping-criterion for ELM
   LREAL  =      F    real-space projection
   NLSPLINE    = F    spline interpolate recip. space projectors
   LCOMPAT=      F    compatible to vasp.4.4
   GGA_COMPAT  = T    GGA compatible to vasp.4.4-vasp.4.6
   LMAXPAW     = -100 max onsite density
   LMAXMIX     =    2 max onsite mixed and CHGCAR
   VOSKOWN=      0    Vosko Wilk Nusair interpolation
   ROPT   =    0.00000
 Ionic relaxation
   EDIFFG = -.3E-01   stopping-criterion for IOM
   NSW    =      0    number of steps for IOM
   NBLOCK =      1;   KBLOCK =      1    inner block; outer block 
   IBRION =     -1    ionic relax: 0-MD 1-quasi-New 2-CG
   NFREE  =      1    steps in history (QN), initial steepest desc. (CG)
   ISIF   =      0    stress and relaxation
   IWAVPR =     10    prediction:  0-non 1-charg 2-wave 3-comb
   ISYM   =      0    0-nonsym 1-usesym 2-fastsym
   LCORR  =      T    Harris-Foulkes like correction to forces

   POTIM  = 0.5000    time-step for ionic-motion
   TEIN   =    0.0    initial temperature
   TEBEG  =    0.0;   TEEND  =   0.0 temperature during run
   SMASS  =  -3.00    Nose mass-parameter (am)
   estimated Nose-frequenzy (Omega)   =  0.10E-29 period in steps = 0.13E+47 mass=  -0.726E-27a.u.
   SCALEE = 1.0000    scale energy and forces
   NPACO  =    256;   APACO  = 16.0  distance and # of slots for P.C.
   PSTRESS=    0.0 pullay stress

  Mass of Ions in am
   POMASS = 195.08
  Ionic Valenz
   ZVAL   =  10.00
  Atomic Wigner-Seitz radii
   RWIGS  =  -1.00
  virtual crystal weights 
   VCA    =   1.00
   NELECT =      40.0000    total number of electrons
   NUPDOWN=      -1.0000    fix difference up-down

 DOS related values:
   EMIN   =  10.00;   EMAX   =-10.00  energy-range for DOS
   EFERMI =   0.00
   ISMEAR =     0;   SIGMA  =   0.05  broadening in eV -4-tet -1-fermi 0-gaus

 Electronic relaxation 2 (details)
   IALGO  =     38    algorithm
   LDIAG  =      T    sub-space diagonalisation (order eigenvalues)
   LSUBROT=      F    optimize rotation matrix (better conditioning)
   TURBO    =      0    0=normal 1=particle mesh
   IRESTART =      0    0=no restart 2=restart with 2 vectors
   NREBOOT  =      0    no. of reboots
   NMIN     =      0    reboot dimension
   EREF     =   0.00    reference energy to select bands
   IMIX   =      4    mixing-type and parameters
     AMIX     =   0.40;   BMIX     =  1.00
     AMIX_MAG =   1.60;   BMIX_MAG =  1.00
     AMIN     =   0.10
     WC   =   100.;   INIMIX=   1;  MIXPRE=   1;  MAXMIX= -45

 Intra band minimization:
   WEIMIN = 0.0000     energy-eigenvalue tresh-hold
   EBREAK =  0.89E-06  absolut break condition
   DEPER  =   0.30     relativ break condition  

   TIME   =   0.40     timestep for ELM

  volume/ion in A,a.u.               =      15.83       106.85
  Fermi-wavevector in a.u.,A,eV,Ry     =   1.404581  2.654274 26.842232  1.972848
  Thomas-Fermi vector in A             =   2.527128
 
 Write flags
   LWAVE        =      F    write WAVECAR
   LDOWNSAMPLE  =      F    k-point downsampling of WAVECAR
   LCHARG       =      T    write CHGCAR
   LVTOT        =      F    write LOCPOT, total local potential
   LVHAR        =      F    write LOCPOT, Hartree potential only
   LELF         =      F    write electronic localiz. function (ELF)
   LORBIT       =     11    0 simple, 1 ext, 2 COOP (PROOUT), +10 PAW based schemes


 Dipole corrections
   LMONO  =      F    monopole corrections only (constant potential shift)
   LDIPOL =      F    correct potential (dipole corrections)
   IDIPOL =      0    1-x, 2-y, 3-z, 4-all directions 
   EPSILON=  1.0000000 bulk dielectric constant

 Exchange correlation treatment:
   GGA     =    RP    GGA type
   LEXCH   =     9    internal setting for exchange type
   VOSKOWN=      0    Vosko Wilk Nusair interpolation
   LHFCALC =     F    Hartree Fock is set to
   LHFONE  =     F    Hartree Fock one center treatment
   AEXX    =    0.0000 exact exchange contribution

 Linear response parameters
   LEPSILON=     F    determine dielectric tensor
   LRPA    =     F    only Hartree local field effects (RPA)
   LNABLA  =     F    use nabla operator in PAW spheres
   LVEL    =     F    velocity operator in full k-point grid
   LINTERFAST=   F  fast interpolation
   KINTER  =     0    interpolate to denser k-point grid
   CSHIFT  =0.1000    complex shift for real part using Kramers Kronig
   OMEGAMAX=  -1.0    maximum frequency
   DEG_THRESHOLD= 0.2000000E-02 threshold for treating states as degnerate
   RTIME   =   -0.100 relaxation time in fs
  (WPLASMAI=    0.000 imaginary part of plasma frequency in eV, 0.658/RTIME)
   DFIELD  = 0.0000000 0.0000000 0.0000000 field for delta impulse in time
 
 Orbital magnetization related:
   ORBITALMAG=     F  switch on orbital magnetization
   LCHIMAG   =     F  perturbation theory with respect to B field
   DQ        =  0.001000  dq finite difference perturbation B field
   LLRAUG    =     F  two centre corrections for induced B field



--------------------------------------------------------------------------------------------------------


 Static calculation
 charge density and potential will be updated during run
 non-spin polarized calculation
 Variant of blocked Davidson
 Davidson routine will perform the subspace rotation
 perform sub-space diagonalisation
    after iterative eigenvector-optimisation
 modified Broyden-mixing scheme, WC =      100.0
 initial mixing is a Kerker type mixing with AMIX =  0.4000 and BMIX =      1.0000
 Hartree-type preconditioning will be used
 using additional bands             8
 reciprocal scheme for non local part
 use partial core corrections
 calculate Harris-corrections to forces 
   (improved forces if not selfconsistent)
 use gradient corrections 
 use of overlap-Matrix (Vanderbilt PP)
 Gauss-broadening in eV      SIGMA  =   0.05


--------------------------------------------------------------------------------------------------------


  energy-cutoff  :      420.00
  volume of cell :       63.34
      direct lattice vectors                 reciprocal lattice vectors
    -3.986098000  3.986098000  0.000000000     0.000000000  0.250871905 -0.000000000
    -3.986098000  0.000000000  3.986098000     0.000000000 -0.000000000  0.250871905
     3.986098000  0.000000000  0.000000000     0.250871905  0.250871905  0.250871905

  length of vectors
     5.637193853  5.637193853  3.986098000     0.250871905  0.250871905  0.434522886


 
 k-points in units of 2pi/SCALE and weight: Automatic kpoint scheme                 
   0.00000000  0.00000000  0.00000000       0.002
   0.00000000  0.03135899  0.00000000       0.004
   0.00000000  0.00000000  0.03135899       0.004
   0.03135899  0.00000000  0.00000000       0.004
   0.00000000  0.06271798  0.00000000       0.004
   0.00000000  0.00000000  0.06271798       0.004
   0.06271798  0.00000000  0.00000000       0.004
   0.00000000  0.09407696  0.00000000       0.004
   0.00000000  0.00000000  0.09407696       0.004
   0.09407696  0.00000000  0.00000000       0.004
   0.00000000  0.12543595  0.00000000       0.002
   0.00000000  0.00000000  0.12543595       0.002
   0.12543595  0.25087191  0.25087191       0.002
   0.00000000  0.03135899  0.03135899       0.004
   0.03135899  0.00000000  0.03135899       0.004
   0.03135899  0.03135899  0.00000000       0.004
   0.00000000 -0.03135899  0.03135899       0.004
   0.03135899 -0.03135899  0.00000000       0.004
   0.03135899 -0.00000000 -0.03135899       0.004
   0.00000000  0.06271798  0.03135899       0.004
   0.03135899  0.00000000  0.06271798       0.004
   0.06271798  0.03135899  0.00000000       0.004
   0.00000000 -0.03135899  0.06271798       0.004
   0.03135899 -0.06271798  0.00000000       0.004
   0.06271798 -0.00000000  0.03135899       0.004
   0.03135899 -0.00000000 -0.06271798       0.004
   0.06271798 -0.03135899 -0.00000000       0.004
   0.03135899  0.06271798 -0.00000000       0.004
   0.06271798  0.00000000 -0.03135899       0.004
   0.00000000  0.06271798 -0.03135899       0.004
   0.00000000  0.03135899  0.06271798       0.004
   0.00000000  0.09407696  0.03135899       0.004
   0.03135899  0.00000000  0.09407696       0.004
   0.09407696  0.03135899  0.00000000       0.004
   0.00000000 -0.03135899  0.09407696       0.004
   0.03135899  0.15679494  0.00000000       0.004
   0.09407696 -0.00000000  0.03135899       0.004
   0.03135899 -0.00000000  0.15679494       0.004
   0.09407696  0.21951292 -0.00000000       0.004
   0.03135899  0.09407696 -0.00000000       0.004
   0.09407696  0.00000000  0.21951292       0.004
   0.00000000  0.09407696 -0.03135899       0.004
   0.00000000  0.03135899  0.09407696       0.004
   0.00000000  0.12543595  0.03135899       0.004
   0.03135899  0.00000000  0.12543595       0.004
   0.12543595  0.03135899  0.25087191       0.004
   0.00000000 -0.03135899  0.12543595       0.004
   0.03135899  0.12543595  0.00000000       0.004
   0.12543595  0.25087191  0.03135899       0.004
   0.00000000  0.06271798  0.06271798       0.004
   0.06271798  0.00000000  0.06271798       0.004
   0.06271798  0.06271798  0.00000000       0.004
   0.00000000 -0.06271798  0.06271798       0.004
   0.06271798  0.18815393  0.00000000       0.004
   0.06271798 -0.00000000  0.18815393       0.004
   0.00000000  0.09407696  0.06271798       0.004
   0.06271798  0.00000000  0.09407696       0.004
   0.09407696  0.06271798  0.00000000       0.004
   0.00000000 -0.06271798  0.09407696       0.004
   0.06271798  0.15679494  0.00000000       0.004
   0.09407696 -0.00000000  0.06271798       0.004
   0.06271798 -0.00000000  0.15679494       0.004
   0.09407696  0.18815393 -0.00000000       0.004
   0.06271798  0.09407696 -0.00000000       0.004
   0.09407696  0.00000000  0.18815393       0.004
   0.00000000  0.09407696 -0.06271798       0.004
   0.00000000  0.06271798  0.09407696       0.004
   0.00000000  0.12543595  0.06271798       0.004
   0.06271798  0.00000000  0.12543595       0.004
   0.12543595  0.06271798  0.25087191       0.004
   0.00000000 -0.06271798  0.12543595       0.004
   0.06271798  0.12543595  0.00000000       0.004
   0.12543595  0.25087191  0.06271798       0.004
   0.00000000  0.09407696  0.09407696       0.004
   0.09407696  0.00000000  0.09407696       0.004
   0.09407696  0.09407696  0.00000000       0.004
   0.00000000 -0.09407696  0.09407696       0.004
   0.09407696  0.15679494  0.00000000       0.004
   0.09407696 -0.00000000  0.15679494       0.004
   0.00000000  0.12543595  0.09407696       0.004
   0.09407696  0.00000000  0.12543595       0.004
   0.12543595  0.09407696  0.25087191       0.004
   0.00000000 -0.09407696  0.12543595       0.004
   0.09407696  0.12543595  0.00000000       0.004
   0.12543595  0.25087191  0.09407696       0.004
   0.00000000  0.12543595  0.12543595       0.002
   0.12543595  0.25087191  0.12543595       0.002
   0.12543595  0.12543595  0.25087191       0.002
   0.03135899  0.03135899  0.03135899       0.004
   0.03135899 -0.03135899  0.03135899       0.004
   0.03135899 -0.03135899 -0.03135899       0.004
   0.03135899  0.03135899 -0.03135899       0.004
   0.03135899  0.06271798  0.03135899       0.004
   0.03135899  0.03135899  0.06271798       0.004
   0.06271798  0.03135899  0.03135899       0.004
   0.03135899 -0.03135899  0.06271798       0.004
   0.03135899 -0.06271798  0.03135899       0.004
   0.06271798 -0.03135899  0.03135899       0.004
   0.03135899 -0.06271798 -0.03135899       0.004
   0.03135899 -0.03135899 -0.06271798       0.004
   0.06271798 -0.03135899 -0.03135899       0.004
   0.03135899  0.03135899 -0.06271798       0.004
   0.03135899  0.06271798 -0.03135899       0.004
   0.06271798  0.03135899 -0.03135899       0.004
   0.03135899  0.09407696  0.03135899       0.004
   0.03135899  0.03135899  0.09407696       0.004
   0.09407696  0.03135899  0.03135899       0.004
   0.03135899 -0.03135899  0.09407696       0.004
   0.03135899  0.15679494  0.03135899       0.004
   0.09407696  0.21951292  0.03135899       0.004
   0.03135899  0.15679494 -0.03135899       0.004
   0.03135899 -0.03135899  0.15679494       0.004
   0.09407696  0.21951292  0.21951292       0.004
   0.03135899  0.03135899  0.15679494       0.004
   0.03135899  0.09407696 -0.03135899       0.004
   0.09407696  0.03135899  0.21951292       0.004
   0.03135899  0.12543595  0.03135899       0.004
   0.03135899  0.03135899  0.12543595       0.004
   0.12543595  0.03135899  0.03135899       0.004
   0.03135899 -0.03135899  0.12543595       0.004
   0.12543595  0.21951292  0.03135899       0.004
   0.03135899  0.12543595 -0.03135899       0.004
   0.03135899  0.06271798  0.06271798       0.004
   0.06271798  0.03135899  0.06271798       0.004
   0.06271798  0.06271798  0.03135899       0.004
   0.03135899 -0.06271798  0.06271798       0.004
   0.06271798  0.18815393  0.03135899       0.004
   0.06271798 -0.03135899  0.06271798       0.004
   0.03135899 -0.06271798 -0.06271798       0.004
   0.06271798 -0.03135899  0.18815393       0.004
   0.06271798  0.18815393 -0.03135899       0.004
   0.03135899  0.06271798 -0.06271798       0.004
   0.06271798  0.06271798 -0.03135899       0.004
   0.06271798  0.03135899  0.18815393       0.004
   0.03135899  0.09407696  0.06271798       0.004
   0.06271798  0.03135899  0.09407696       0.004
   0.09407696  0.06271798  0.03135899       0.004
   0.03135899 -0.06271798  0.09407696       0.004
   0.06271798  0.15679494  0.03135899       0.004
   0.09407696  0.21951292  0.06271798       0.004
   0.03135899  0.15679494 -0.06271798       0.004
   0.06271798 -0.03135899  0.15679494       0.004
   0.09407696  0.18815393  0.21951292       0.004
   0.03135899  0.06271798  0.15679494       0.004
   0.06271798  0.09407696 -0.03135899       0.004
   0.09407696  0.03135899  0.18815393       0.004
  -0.06271798  0.03135899 -0.09407696       0.004
  -0.09407696 -0.18815393 -0.03135899       0.004
  -0.03135899  0.09407696 -0.06271798       0.004
  -0.09407696  0.03135899 -0.18815393       0.004
  -0.03135899  0.06271798  0.09407696       0.004
  -0.06271798 -0.15679494  0.03135899       0.004
  -0.09407696 -0.06271798  0.03135899       0.004
  -0.03135899 -0.09407696  0.06271798       0.004
  -0.06271798 -0.03135899 -0.15679494       0.004
  -0.06271798 -0.09407696 -0.03135899       0.004
  -0.03135899 -0.06271798 -0.09407696       0.004
  -0.09407696 -0.03135899 -0.06271798       0.004
   0.03135899  0.12543595  0.06271798       0.004
   0.06271798  0.03135899  0.12543595       0.004
   0.12543595  0.06271798  0.03135899       0.004
   0.03135899 -0.06271798  0.12543595       0.004
   0.06271798  0.12543595  0.03135899       0.004
   0.12543595  0.21951292  0.06271798       0.004
   0.03135899  0.12543595 -0.06271798       0.004
   0.06271798 -0.03135899  0.12543595       0.004
   0.03135899  0.06271798  0.12543595       0.004
   0.06271798  0.12543595 -0.03135899       0.004
   0.12543595  0.06271798  0.21951292       0.004
   0.12543595  0.03135899  0.06271798       0.004
   0.03135899  0.09407696  0.09407696       0.004
   0.09407696  0.03135899  0.09407696       0.004
   0.09407696  0.09407696  0.03135899       0.004
   0.03135899  0.15679494  0.09407696       0.004
   0.09407696  0.15679494  0.03135899       0.004
   0.09407696  0.21951292  0.09407696       0.004
   0.03135899  0.15679494  0.15679494       0.004
   0.09407696  0.21951292  0.15679494       0.004
   0.09407696  0.15679494  0.21951292       0.004
   0.03135899  0.09407696  0.15679494       0.004
   0.09407696  0.09407696  0.21951292       0.004
   0.09407696  0.03135899  0.15679494       0.004
   0.03135899  0.12543595  0.09407696       0.004
   0.09407696  0.03135899  0.12543595       0.004
   0.12543595  0.09407696  0.03135899       0.004
   0.03135899  0.15679494  0.12543595       0.004
   0.09407696  0.12543595  0.03135899       0.004
   0.12543595  0.21951292  0.09407696       0.004
   0.03135899  0.12543595  0.15679494       0.004
   0.09407696  0.21951292  0.12543595       0.004
   0.03135899  0.09407696  0.12543595       0.004
   0.09407696  0.12543595  0.21951292       0.004
   0.12543595  0.09407696  0.21951292       0.004
   0.12543595  0.03135899  0.09407696       0.004
   0.03135899  0.12543595  0.12543595       0.004
   0.12543595  0.03135899  0.12543595       0.004
   0.12543595  0.12543595  0.03135899       0.004
   0.06271798  0.06271798  0.06271798       0.004
   0.06271798  0.18815393  0.06271798       0.004
   0.06271798  0.18815393  0.18815393       0.004
   0.06271798  0.06271798  0.18815393       0.004
   0.06271798  0.09407696  0.06271798       0.004
   0.06271798  0.06271798  0.09407696       0.004
   0.09407696  0.06271798  0.06271798       0.004
   0.06271798  0.18815393  0.09407696       0.004
   0.06271798  0.15679494  0.06271798       0.004
   0.09407696  0.18815393  0.06271798       0.004
   0.06271798  0.15679494  0.18815393       0.004
   0.06271798  0.18815393  0.15679494       0.004
   0.09407696  0.18815393  0.18815393       0.004
   0.06271798  0.06271798  0.15679494       0.004
   0.06271798  0.09407696  0.18815393       0.004
   0.09407696  0.06271798  0.18815393       0.004
   0.06271798  0.12543595  0.06271798       0.004
   0.06271798  0.06271798  0.12543595       0.004
   0.12543595  0.06271798  0.06271798       0.004
   0.06271798  0.18815393  0.12543595       0.004
   0.12543595  0.18815393  0.06271798       0.004
   0.06271798  0.12543595  0.18815393       0.004
   0.06271798  0.09407696  0.09407696       0.004
   0.09407696  0.06271798  0.09407696       0.004
   0.09407696  0.09407696  0.06271798       0.004
   0.06271798  0.15679494  0.09407696       0.004
   0.09407696  0.15679494  0.06271798       0.004
   0.09407696  0.18815393  0.09407696       0.004
   0.06271798  0.15679494  0.15679494       0.004
   0.09407696  0.18815393  0.15679494       0.004
   0.09407696  0.15679494  0.18815393       0.004
   0.06271798  0.09407696  0.15679494       0.004
   0.09407696  0.09407696  0.18815393       0.004
   0.09407696  0.06271798  0.15679494       0.004
   0.06271798  0.12543595  0.09407696       0.004
   0.09407696  0.06271798  0.12543595       0.004
   0.12543595  0.09407696  0.06271798       0.004
   0.06271798  0.15679494  0.12543595       0.004
   0.09407696  0.12543595  0.06271798       0.004
   0.12543595  0.18815393  0.09407696       0.004
   0.06271798  0.12543595  0.15679494       0.004
   0.09407696  0.18815393  0.12543595       0.004
   0.06271798  0.09407696  0.12543595       0.004
   0.09407696  0.12543595  0.18815393       0.004
   0.12543595  0.09407696  0.18815393       0.004
   0.12543595  0.06271798  0.09407696       0.004
   0.06271798  0.12543595  0.12543595       0.004
   0.12543595  0.06271798  0.12543595       0.004
   0.12543595  0.12543595  0.06271798       0.004
   0.09407696  0.09407696  0.09407696       0.004
   0.09407696  0.15679494  0.09407696       0.004
   0.09407696  0.15679494  0.15679494       0.004
   0.09407696  0.09407696  0.15679494       0.004
   0.09407696  0.12543595  0.09407696       0.004
   0.09407696  0.09407696  0.12543595       0.004
   0.12543595  0.09407696  0.09407696       0.004
   0.09407696  0.15679494  0.12543595       0.004
   0.12543595  0.15679494  0.09407696       0.004
   0.09407696  0.12543595  0.15679494       0.004
   0.09407696  0.12543595  0.12543595       0.004
   0.12543595  0.09407696  0.12543595       0.004
   0.12543595  0.12543595  0.09407696       0.004
   0.12543595  0.12543595  0.12543595       0.002
 
 k-points in reciprocal lattice and weights: Automatic kpoint scheme                 
   0.00000000  0.00000000  0.00000000       0.002
   0.12500000  0.00000000  0.00000000       0.004
   0.00000000  0.12500000  0.00000000       0.004
  -0.12500000 -0.12500000  0.12500000       0.004
   0.25000000  0.00000000  0.00000000       0.004
   0.00000000  0.25000000  0.00000000       0.004
  -0.25000000 -0.25000000  0.25000000       0.004
   0.37500000  0.00000000  0.00000000       0.004
   0.00000000  0.37500000  0.00000000       0.004
  -0.37500000 -0.37500000  0.37500000       0.004
   0.50000000  0.00000000  0.00000000       0.002
   0.00000000  0.50000000  0.00000000       0.002
   0.50000000  0.50000000  0.50000000       0.002
   0.12500000  0.12500000  0.00000000       0.004
  -0.12500000  0.00000000  0.12500000       0.004
   0.00000000 -0.12500000  0.12500000       0.004
  -0.12500000  0.12500000  0.00000000       0.004
  -0.25000000 -0.12500000  0.12500000       0.004
  -0.12500000 -0.25000000  0.12500000       0.004
   0.25000000  0.12500000  0.00000000       0.004
  -0.12500000  0.12500000  0.12500000       0.004
  -0.12500000 -0.25000000  0.25000000       0.004
  -0.12500000  0.25000000  0.00000000       0.004
  -0.37500000 -0.12500000  0.12500000       0.004
  -0.25000000 -0.12500000  0.25000000       0.004
  -0.12500000 -0.37500000  0.12500000       0.004
  -0.37500000 -0.25000000  0.25000000       0.004
   0.12500000 -0.12500000  0.12500000       0.004
  -0.25000000 -0.37500000  0.25000000       0.004
   0.25000000 -0.12500000  0.00000000       0.004
   0.12500000  0.25000000  0.00000000       0.004
   0.37500000  0.12500000  0.00000000       0.004
  -0.12500000  0.25000000  0.12500000       0.004
  -0.25000000 -0.37500000  0.37500000       0.004
  -0.12500000  0.37500000  0.00000000       0.004
   0.50000000 -0.12500000  0.12500000       0.004
  -0.37500000 -0.25000000  0.37500000       0.004
  -0.12500000  0.50000000  0.12500000       0.004
   0.50000000 -0.37500000  0.37500000       0.004
   0.25000000 -0.12500000  0.12500000       0.004
  -0.37500000  0.50000000  0.37500000       0.004
   0.37500000 -0.12500000  0.00000000       0.004
   0.12500000  0.37500000  0.00000000       0.004
   0.50000000  0.12500000  0.00000000       0.004
  -0.12500000  0.37500000  0.12500000       0.004
  -0.37500000  0.50000000  0.50000000       0.004
  -0.12500000  0.50000000  0.00000000       0.004
   0.37500000 -0.12500000  0.12500000       0.004
   0.50000000 -0.37500000  0.50000000       0.004
   0.25000000  0.25000000  0.00000000       0.004
  -0.25000000  0.00000000  0.25000000       0.004
   0.00000000 -0.25000000  0.25000000       0.004
  -0.25000000  0.25000000  0.00000000       0.004
   0.50000000 -0.25000000  0.25000000       0.004
  -0.25000000  0.50000000  0.25000000       0.004
   0.37500000  0.25000000  0.00000000       0.004
  -0.25000000  0.12500000  0.25000000       0.004
  -0.12500000 -0.37500000  0.37500000       0.004
  -0.25000000  0.37500000  0.00000000       0.004
   0.37500000 -0.25000000  0.25000000       0.004
  -0.37500000 -0.12500000  0.37500000       0.004
  -0.25000000  0.37500000  0.25000000       0.004
   0.37500000 -0.37500000  0.37500000       0.004
   0.12500000 -0.25000000  0.25000000       0.004
  -0.37500000  0.37500000  0.37500000       0.004
   0.37500000 -0.25000000  0.00000000       0.004
   0.25000000  0.37500000  0.00000000       0.004
   0.50000000  0.25000000  0.00000000       0.004
  -0.25000000  0.25000000  0.25000000       0.004
  -0.25000000  0.50000000  0.50000000       0.004
  -0.25000000  0.50000000  0.00000000       0.004
   0.25000000 -0.25000000  0.25000000       0.004
   0.50000000 -0.25000000  0.50000000       0.004
   0.37500000  0.37500000  0.00000000       0.004
  -0.37500000  0.00000000  0.37500000       0.004
   0.00000000 -0.37500000  0.37500000       0.004
  -0.37500000  0.37500000  0.00000000       0.004
   0.25000000 -0.37500000  0.37500000       0.004
  -0.37500000  0.25000000  0.37500000       0.004
   0.50000000  0.37500000  0.00000000       0.004
  -0.37500000  0.12500000  0.37500000       0.004
  -0.12500000  0.50000000  0.50000000       0.004
  -0.37500000  0.50000000  0.00000000       0.004
   0.12500000 -0.37500000  0.37500000       0.004
   0.50000000 -0.12500000  0.50000000       0.004
   0.50000000  0.50000000  0.00000000       0.002
   0.50000000  0.00000000  0.50000000       0.002
   0.00000000  0.50000000  0.50000000       0.002
   0.00000000  0.00000000  0.12500000       0.004
  -0.25000000  0.00000000  0.12500000       0.004
  -0.25000000 -0.25000000  0.12500000       0.004
   0.00000000 -0.25000000  0.12500000       0.004
   0.12500000  0.00000000  0.12500000       0.004
   0.00000000  0.12500000  0.12500000       0.004
  -0.12500000 -0.12500000  0.25000000       0.004
  -0.25000000  0.12500000  0.12500000       0.004
  -0.37500000  0.00000000  0.12500000       0.004
  -0.37500000 -0.12500000  0.25000000       0.004
  -0.37500000 -0.25000000  0.12500000       0.004
  -0.25000000 -0.37500000  0.12500000       0.004
  -0.37500000 -0.37500000  0.25000000       0.004
   0.00000000 -0.37500000  0.12500000       0.004
   0.12500000 -0.25000000  0.12500000       0.004
  -0.12500000 -0.37500000  0.25000000       0.004
   0.25000000  0.00000000  0.12500000       0.004
   0.00000000  0.25000000  0.12500000       0.004
  -0.25000000 -0.25000000  0.37500000       0.004
  -0.25000000  0.25000000  0.12500000       0.004
   0.50000000  0.00000000  0.12500000       0.004
   0.50000000 -0.25000000  0.37500000       0.004
   0.50000000 -0.25000000  0.12500000       0.004
  -0.25000000  0.50000000  0.12500000       0.004
   0.50000000  0.50000000  0.37500000       0.004
   0.00000000  0.50000000  0.12500000       0.004
   0.25000000 -0.25000000  0.12500000       0.004
  -0.25000000  0.50000000  0.37500000       0.004
   0.37500000  0.00000000  0.12500000       0.004
   0.00000000  0.37500000  0.12500000       0.004
  -0.37500000 -0.37500000  0.50000000       0.004
  -0.25000000  0.37500000  0.12500000       0.004
   0.37500000 -0.37500000  0.50000000       0.004
   0.37500000 -0.25000000  0.12500000       0.004
   0.12500000  0.12500000  0.12500000       0.004
  -0.12500000  0.00000000  0.25000000       0.004
   0.00000000 -0.12500000  0.25000000       0.004
  -0.37500000  0.12500000  0.12500000       0.004
   0.50000000 -0.12500000  0.25000000       0.004
  -0.37500000  0.00000000  0.25000000       0.004
  -0.37500000 -0.37500000  0.12500000       0.004
  -0.37500000  0.50000000  0.25000000       0.004
   0.50000000 -0.37500000  0.25000000       0.004
   0.12500000 -0.37500000  0.12500000       0.004
   0.00000000 -0.37500000  0.25000000       0.004
  -0.12500000  0.50000000  0.25000000       0.004
   0.25000000  0.12500000  0.12500000       0.004
  -0.12500000  0.12500000  0.25000000       0.004
  -0.12500000 -0.25000000  0.37500000       0.004
  -0.37500000  0.25000000  0.12500000       0.004
   0.37500000 -0.12500000  0.25000000       0.004
   0.50000000 -0.12500000  0.37500000       0.004
   0.50000000 -0.37500000  0.12500000       0.004
  -0.37500000  0.37500000  0.25000000       0.004
   0.37500000  0.50000000  0.37500000       0.004
   0.12500000  0.50000000  0.12500000       0.004
   0.12500000 -0.37500000  0.25000000       0.004
  -0.25000000  0.37500000  0.37500000       0.004
   0.37500000 -0.12500000 -0.25000000       0.004
  -0.37500000  0.25000000 -0.37500000       0.004
   0.50000000 -0.12500000 -0.12500000       0.004
   0.50000000 -0.37500000 -0.37500000       0.004
   0.37500000  0.50000000 -0.12500000       0.004
  -0.37500000  0.37500000 -0.25000000       0.004
   0.12500000  0.50000000 -0.37500000       0.004
  -0.25000000  0.37500000 -0.12500000       0.004
   0.12500000 -0.37500000 -0.25000000       0.004
  -0.12500000  0.12500000 -0.25000000       0.004
  -0.12500000 -0.25000000 -0.12500000       0.004
   0.25000000  0.12500000 -0.37500000       0.004
   0.37500000  0.12500000  0.12500000       0.004
  -0.12500000  0.25000000  0.25000000       0.004
  -0.25000000 -0.37500000  0.50000000       0.004
  -0.37500000  0.37500000  0.12500000       0.004
   0.25000000 -0.12500000  0.25000000       0.004
   0.37500000 -0.25000000  0.50000000       0.004
   0.37500000 -0.37500000  0.12500000       0.004
  -0.37500000  0.25000000  0.25000000       0.004
   0.12500000  0.37500000  0.12500000       0.004
   0.25000000 -0.37500000  0.25000000       0.004
  -0.25000000  0.37500000  0.50000000       0.004
  -0.37500000 -0.25000000  0.50000000       0.004
   0.25000000  0.25000000  0.12500000       0.004
  -0.25000000  0.00000000  0.37500000       0.004
   0.00000000 -0.25000000  0.37500000       0.004
   0.50000000  0.25000000  0.12500000       0.004
   0.25000000 -0.25000000  0.37500000       0.004
   0.50000000  0.00000000  0.37500000       0.004
   0.50000000  0.50000000  0.12500000       0.004
   0.50000000  0.25000000  0.37500000       0.004
   0.25000000  0.50000000  0.37500000       0.004
   0.25000000  0.50000000  0.12500000       0.004
   0.00000000  0.50000000  0.37500000       0.004
  -0.25000000  0.25000000  0.37500000       0.004
   0.37500000  0.25000000  0.12500000       0.004
  -0.25000000  0.12500000  0.37500000       0.004
  -0.12500000 -0.37500000  0.50000000       0.004
   0.50000000  0.37500000  0.12500000       0.004
   0.12500000 -0.25000000  0.37500000       0.004
   0.37500000 -0.12500000  0.50000000       0.004
   0.37500000  0.50000000  0.12500000       0.004
   0.50000000  0.12500000  0.37500000       0.004
   0.25000000  0.37500000  0.12500000       0.004
   0.12500000  0.50000000  0.37500000       0.004
  -0.12500000  0.37500000  0.50000000       0.004
  -0.37500000 -0.12500000  0.50000000       0.004
   0.37500000  0.37500000  0.12500000       0.004
  -0.37500000  0.00000000  0.50000000       0.004
   0.00000000 -0.37500000  0.50000000       0.004
   0.00000000  0.00000000  0.25000000       0.004
   0.50000000  0.00000000  0.25000000       0.004
   0.50000000  0.50000000  0.25000000       0.004
   0.00000000  0.50000000  0.25000000       0.004
   0.12500000  0.00000000  0.25000000       0.004
   0.00000000  0.12500000  0.25000000       0.004
  -0.12500000 -0.12500000  0.37500000       0.004
   0.50000000  0.12500000  0.25000000       0.004
   0.37500000  0.00000000  0.25000000       0.004
   0.37500000 -0.12500000  0.37500000       0.004
   0.37500000  0.50000000  0.25000000       0.004
   0.50000000  0.37500000  0.25000000       0.004
   0.37500000  0.37500000  0.37500000       0.004
   0.00000000  0.37500000  0.25000000       0.004
   0.12500000  0.50000000  0.25000000       0.004
  -0.12500000  0.37500000  0.37500000       0.004
   0.25000000  0.00000000  0.25000000       0.004
   0.00000000  0.25000000  0.25000000       0.004
  -0.25000000 -0.25000000  0.50000000       0.004
   0.50000000  0.25000000  0.25000000       0.004
   0.25000000 -0.25000000  0.50000000       0.004
   0.25000000  0.50000000  0.25000000       0.004
   0.12500000  0.12500000  0.25000000       0.004
  -0.12500000  0.00000000  0.37500000       0.004
   0.00000000 -0.12500000  0.37500000       0.004
   0.37500000  0.12500000  0.25000000       0.004
   0.25000000 -0.12500000  0.37500000       0.004
   0.37500000  0.00000000  0.37500000       0.004
   0.37500000  0.37500000  0.25000000       0.004
   0.37500000  0.25000000  0.37500000       0.004
   0.25000000  0.37500000  0.37500000       0.004
   0.12500000  0.37500000  0.25000000       0.004
   0.00000000  0.37500000  0.37500000       0.004
  -0.12500000  0.25000000  0.37500000       0.004
   0.25000000  0.12500000  0.25000000       0.004
  -0.12500000  0.12500000  0.37500000       0.004
  -0.12500000 -0.25000000  0.50000000       0.004
   0.37500000  0.25000000  0.25000000       0.004
   0.12500000 -0.12500000  0.37500000       0.004
   0.25000000 -0.12500000  0.50000000       0.004
   0.25000000  0.37500000  0.25000000       0.004
   0.37500000  0.12500000  0.37500000       0.004
   0.12500000  0.25000000  0.25000000       0.004
   0.12500000  0.37500000  0.37500000       0.004
  -0.12500000  0.25000000  0.50000000       0.004
  -0.25000000 -0.12500000  0.50000000       0.004
   0.25000000  0.25000000  0.25000000       0.004
  -0.25000000  0.00000000  0.50000000       0.004
   0.00000000 -0.25000000  0.50000000       0.004
   0.00000000  0.00000000  0.37500000       0.004
   0.25000000  0.00000000  0.37500000       0.004
   0.25000000  0.25000000  0.37500000       0.004
   0.00000000  0.25000000  0.37500000       0.004
   0.12500000  0.00000000  0.37500000       0.004
   0.00000000  0.12500000  0.37500000       0.004
  -0.12500000 -0.12500000  0.50000000       0.004
   0.25000000  0.12500000  0.37500000       0.004
   0.12500000 -0.12500000  0.50000000       0.004
   0.12500000  0.25000000  0.37500000       0.004
   0.12500000  0.12500000  0.37500000       0.004
  -0.12500000  0.00000000  0.50000000       0.004
   0.00000000 -0.12500000  0.50000000       0.004
   0.00000000  0.00000000  0.50000000       0.002
 
 position of ions in fractional coordinates (direct lattice) 
   0.00000000  0.00000000  0.00000000
   0.50000000  0.50000000  0.00000000
   0.00000000  0.50000000  0.00000000
   0.50000000  0.00000000  0.00000000
 
 position of ions in cartesian coordinates  (Angst):
   0.00000000  0.00000000  0.00000000
  -3.98609800  1.99304900  1.99304900
  -1.99304900  0.00000000  1.99304900
  -1.99304900  1.99304900  0.00000000
 


--------------------------------------------------------------------------------------------------------


 k-point   1 :   0.0000 0.0000 0.0000  plane waves:    1237
 k-point   2 :   0.1250 0.0000 0.0000  plane waves:    1249
 k-point   3 :   0.0000 0.1250 0.0000  plane waves:    1249
 k-point   4 :  -0.1250-0.1250 0.1250  plane waves:    1249
 k-point   5 :   0.2500 0.0000 0.0000  plane waves:    1245
 k-point   6 :   0.0000 0.2500 0.0000  plane waves:    1245
 k-point   7 :  -0.2500-0.2500 0.2500  plane waves:    1245
 k-point   8 :   0.3750 0.0000 0.0000  plane waves:    1230
 k-point   9 :   0.0000 0.3750 0.0000  plane waves:    1230
 k-point  10 :  -0.3750-0.3750 0.3750  plane waves:    1230
 k-point  11 :   0.5000 0.0000 0.0000  plane waves:    1238
 k-point  12 :   0.0000 0.5000 0.0000  plane waves:    1238
 k-point  13 :   0.5000 0.5000 0.5000  plane waves:    1238
 k-point  14 :   0.1250 0.1250 0.0000  plane waves:    1257
 k-point  15 :  -0.1250 0.0000 0.1250  plane waves:    1257
 k-point  16 :   0.0000-0.1250 0.1250  plane waves:    1257
 k-point  17 :  -0.1250 0.1250 0.0000  plane waves:    1257
 k-point  18 :  -0.2500-0.1250 0.1250  plane waves:    1257
 k-point  19 :  -0.1250-0.2500 0.1250  plane waves:    1257
 k-point  20 :   0.2500 0.1250 0.0000  plane waves:    1253
 k-point  21 :  -0.1250 0.1250 0.1250  plane waves:    1253
 k-point  22 :  -0.1250-0.2500 0.2500  plane waves:    1253
 k-point  23 :  -0.1250 0.2500 0.0000  plane waves:    1253
 k-point  24 :  -0.3750-0.1250 0.1250  plane waves:    1253
 k-point  25 :  -0.2500-0.1250 0.2500  plane waves:    1253
 k-point  26 :  -0.1250-0.3750 0.1250  plane waves:    1253
 k-point  27 :  -0.3750-0.2500 0.2500  plane waves:    1253
 k-point  28 :   0.1250-0.1250 0.1250  plane waves:    1253
 k-point  29 :  -0.2500-0.3750 0.2500  plane waves:    1253
 k-point  30 :   0.2500-0.1250 0.0000  plane waves:    1253
 k-point  31 :   0.1250 0.2500 0.0000  plane waves:    1253
 k-point  32 :   0.3750 0.1250 0.0000  plane waves:    1234
 k-point  33 :  -0.1250 0.2500 0.1250  plane waves:    1234
 k-point  34 :  -0.2500-0.3750 0.3750  plane waves:    1234
 k-point  35 :  -0.1250 0.3750 0.0000  plane waves:    1234
 k-point  36 :   0.5000-0.1250 0.1250  plane waves:    1234
 k-point  37 :  -0.3750-0.2500 0.3750  plane waves:    1234
 k-point  38 :  -0.1250 0.5000 0.1250  plane waves:    1234
 k-point  39 :   0.5000-0.3750 0.3750  plane waves:    1234
 k-point  40 :   0.2500-0.1250 0.1250  plane waves:    1234
 k-point  41 :  -0.3750 0.5000 0.3750  plane waves:    1234
 k-point  42 :   0.3750-0.1250 0.0000  plane waves:    1234
 k-point  43 :   0.1250 0.3750 0.0000  plane waves:    1234
 k-point  44 :   0.5000 0.1250 0.0000  plane waves:    1232
 k-point  45 :  -0.1250 0.3750 0.1250  plane waves:    1232
 k-point  46 :  -0.3750 0.5000 0.5000  plane waves:    1232
 k-point  47 :  -0.1250 0.5000 0.0000  plane waves:    1232
 k-point  48 :   0.3750-0.1250 0.1250  plane waves:    1232
 k-point  49 :   0.5000-0.3750 0.5000  plane waves:    1232
 k-point  50 :   0.2500 0.2500 0.0000  plane waves:    1243
 k-point  51 :  -0.2500 0.0000 0.2500  plane waves:    1243
 k-point  52 :   0.0000-0.2500 0.2500  plane waves:    1243
 k-point  53 :  -0.2500 0.2500 0.0000  plane waves:    1243
 k-point  54 :   0.5000-0.2500 0.2500  plane waves:    1243
 k-point  55 :  -0.2500 0.5000 0.2500  plane waves:    1243
 k-point  56 :   0.3750 0.2500 0.0000  plane waves:    1234
 k-point  57 :  -0.2500 0.1250 0.2500  plane waves:    1234
 k-point  58 :  -0.1250-0.3750 0.3750  plane waves:    1234
 k-point  59 :  -0.2500 0.3750 0.0000  plane waves:    1234
 k-point  60 :   0.3750-0.2500 0.2500  plane waves:    1234
 k-point  61 :  -0.3750-0.1250 0.3750  plane waves:    1234
 k-point  62 :  -0.2500 0.3750 0.2500  plane waves:    1234
 k-point  63 :   0.3750-0.3750 0.3750  plane waves:    1234
 k-point  64 :   0.1250-0.2500 0.2500  plane waves:    1234
 k-point  65 :  -0.3750 0.3750 0.3750  plane waves:    1234
 k-point  66 :   0.3750-0.2500 0.0000  plane waves:    1234
 k-point  67 :   0.2500 0.3750 0.0000  plane waves:    1234
 k-point  68 :   0.5000 0.2500 0.0000  plane waves:    1244
 k-point  69 :  -0.2500 0.2500 0.2500  plane waves:    1244
 k-point  70 :  -0.2500 0.5000 0.5000  plane waves:    1244
 k-point  71 :  -0.2500 0.5000 0.0000  plane waves:    1244
 k-point  72 :   0.2500-0.2500 0.2500  plane waves:    1244
 k-point  73 :   0.5000-0.2500 0.5000  plane waves:    1244
 k-point  74 :   0.3750 0.3750 0.0000  plane waves:    1244
 k-point  75 :  -0.3750 0.0000 0.3750  plane waves:    1244
 k-point  76 :   0.0000-0.3750 0.3750  plane waves:    1244
 k-point  77 :  -0.3750 0.3750 0.0000  plane waves:    1244
 k-point  78 :   0.2500-0.3750 0.3750  plane waves:    1244
 k-point  79 :  -0.3750 0.2500 0.3750  plane waves:    1244
 k-point  80 :   0.5000 0.3750 0.0000  plane waves:    1236
 k-point  81 :  -0.3750 0.1250 0.3750  plane waves:    1236
 k-point  82 :  -0.1250 0.5000 0.5000  plane waves:    1236
 k-point  83 :  -0.3750 0.5000 0.0000  plane waves:    1236
 k-point  84 :   0.1250-0.3750 0.3750  plane waves:    1236
 k-point  85 :   0.5000-0.1250 0.5000  plane waves:    1236
 k-point  86 :   0.5000 0.5000 0.0000  plane waves:    1228
 k-point  87 :   0.5000 0.0000 0.5000  plane waves:    1228
 k-point  88 :   0.0000 0.5000 0.5000  plane waves:    1228
 k-point  89 :   0.0000 0.0000 0.1250  plane waves:    1258
 k-point  90 :  -0.2500 0.0000 0.1250  plane waves:    1258
 k-point  91 :  -0.2500-0.2500 0.1250  plane waves:    1258
 k-point  92 :   0.0000-0.2500 0.1250  plane waves:    1258
 k-point  93 :   0.1250 0.0000 0.1250  plane waves:    1252
 k-point  94 :   0.0000 0.1250 0.1250  plane waves:    1252
 k-point  95 :  -0.1250-0.1250 0.2500  plane waves:    1252
 k-point  96 :  -0.2500 0.1250 0.1250  plane waves:    1252
 k-point  97 :  -0.3750 0.0000 0.1250  plane waves:    1252
 k-point  98 :  -0.3750-0.1250 0.2500  plane waves:    1252
 k-point  99 :  -0.3750-0.2500 0.1250  plane waves:    1252
 k-point 100 :  -0.2500-0.3750 0.1250  plane waves:    1252
 k-point 101 :  -0.3750-0.3750 0.2500  plane waves:    1252
 k-point 102 :   0.0000-0.3750 0.1250  plane waves:    1252
 k-point 103 :   0.1250-0.2500 0.1250  plane waves:    1252
 k-point 104 :  -0.1250-0.3750 0.2500  plane waves:    1252
 k-point 105 :   0.2500 0.0000 0.1250  plane waves:    1228
 k-point 106 :   0.0000 0.2500 0.1250  plane waves:    1228
 k-point 107 :  -0.2500-0.2500 0.3750  plane waves:    1228
 k-point 108 :  -0.2500 0.2500 0.1250  plane waves:    1228
 k-point 109 :   0.5000 0.0000 0.1250  plane waves:    1228
 k-point 110 :   0.5000-0.2500 0.3750  plane waves:    1228
 k-point 111 :   0.5000-0.2500 0.1250  plane waves:    1228
 k-point 112 :  -0.2500 0.5000 0.1250  plane waves:    1228
 k-point 113 :   0.5000 0.5000 0.3750  plane waves:    1228
 k-point 114 :   0.0000 0.5000 0.1250  plane waves:    1228
 k-point 115 :   0.2500-0.2500 0.1250  plane waves:    1228
 k-point 116 :  -0.2500 0.5000 0.3750  plane waves:    1228
 k-point 117 :   0.3750 0.0000 0.1250  plane waves:    1238
 k-point 118 :   0.0000 0.3750 0.1250  plane waves:    1238
 k-point 119 :  -0.3750-0.3750 0.5000  plane waves:    1238
 k-point 120 :  -0.2500 0.3750 0.1250  plane waves:    1238
 k-point 121 :   0.3750-0.3750 0.5000  plane waves:    1238
 k-point 122 :   0.3750-0.2500 0.1250  plane waves:    1238
 k-point 123 :   0.1250 0.1250 0.1250  plane waves:    1232
 k-point 124 :  -0.1250 0.0000 0.2500  plane waves:    1232
 k-point 125 :   0.0000-0.1250 0.2500  plane waves:    1232
 k-point 126 :  -0.3750 0.1250 0.1250  plane waves:    1232
 k-point 127 :   0.5000-0.1250 0.2500  plane waves:    1232
 k-point 128 :  -0.3750 0.0000 0.2500  plane waves:    1232
 k-point 129 :  -0.3750-0.3750 0.1250  plane waves:    1232
 k-point 130 :  -0.3750 0.5000 0.2500  plane waves:    1232
 k-point 131 :   0.5000-0.3750 0.2500  plane waves:    1232
 k-point 132 :   0.1250-0.3750 0.1250  plane waves:    1232
 k-point 133 :   0.0000-0.3750 0.2500  plane waves:    1232
 k-point 134 :  -0.1250 0.5000 0.2500  plane waves:    1232
 k-point 135 :   0.2500 0.1250 0.1250  plane waves:    1229
 k-point 136 :  -0.1250 0.1250 0.2500  plane waves:    1229
 k-point 137 :  -0.1250-0.2500 0.3750  plane waves:    1229
 k-point 138 :  -0.3750 0.2500 0.1250  plane waves:    1229
 k-point 139 :   0.3750-0.1250 0.2500  plane waves:    1229
 k-point 140 :   0.5000-0.1250 0.3750  plane waves:    1229
 k-point 141 :   0.5000-0.3750 0.1250  plane waves:    1229
 k-point 142 :  -0.3750 0.3750 0.2500  plane waves:    1229
 k-point 143 :   0.3750 0.5000 0.3750  plane waves:    1229
 k-point 144 :   0.1250 0.5000 0.1250  plane waves:    1229
 k-point 145 :   0.1250-0.3750 0.2500  plane waves:    1229
 k-point 146 :  -0.2500 0.3750 0.3750  plane waves:    1229
 k-point 147 :   0.3750-0.1250-0.2500  plane waves:    1229
 k-point 148 :  -0.3750 0.2500-0.3750  plane waves:    1229
 k-point 149 :   0.5000-0.1250-0.1250  plane waves:    1229
[...]
     17       9.9673      2.00000
     18       9.9673      2.00000
     19      10.4848      0.05434
     20      10.4852      0.05285
     21      10.4855      0.05188
     22      12.3599      0.00000
     23      12.3600      0.00000
     24      12.3600      0.00000
     25      16.2941      0.00000
     26      16.2941      0.00000
     27      16.2943      0.00000
     28      18.8823      0.00000

 k-point   251 :       0.1250    0.0000    0.3750
  band No.  band energies     occupation 
      1       3.7273      2.00000
      2       3.7273      2.00000
      3       3.9649      2.00000
      4       3.9650      2.00000
      5       6.6148      2.00000
      6       6.6148      2.00000
      7       6.8490      2.00000
      8       6.8491      2.00000
      9       7.0608      2.00000
     10       7.0609      2.00000
     11       7.1680      2.00000
     12       7.1682      2.00000
     13       8.5020      2.00000
     14       8.5022      2.00000
     15       8.5559      2.00000
     16       8.5560      2.00000
     17      10.3709      1.80557
     18      10.3709      1.80529
     19      10.3888      1.57098
     20      10.3890      1.56789
     21      10.6896      0.00000
     22      10.6897      0.00000
     23      12.4317      0.00000
     24      12.4318      0.00000
     25      15.8264      0.00000
     26      15.8264      0.00000
     27      17.4779      0.00000
     28      17.4780      0.00000

 k-point   252 :       0.0000    0.1250    0.3750
  band No.  band energies     occupation 
      1       3.7273      2.00000
      2       3.7273      2.00000
      3       3.9649      2.00000
      4       3.9650      2.00000
      5       6.6146      2.00000
      6       6.6150      2.00000
      7       6.8487      2.00000
      8       6.8494      2.00000
      9       7.0607      2.00000
     10       7.0609      2.00000
     11       7.1677      2.00000
     12       7.1686      2.00000
     13       8.5017      2.00000
     14       8.5025      2.00000
     15       8.5558      2.00000
     16       8.5560      2.00000
     17      10.3708      1.80605
     18      10.3710      1.80475
     19      10.3885      1.57595
     20      10.3893      1.56295
     21      10.6895      0.00000
     22      10.6897      0.00000
     23      12.4317      0.00000
     24      12.4318      0.00000
     25      15.8263      0.00000
     26      15.8265      0.00000
     27      17.4778      0.00000
     28      17.4781      0.00000

 k-point   253 :      -0.1250   -0.1250    0.5000
  band No.  band energies     occupation 
      1       3.7273      2.00000
      2       3.7273      2.00000
      3       3.9649      2.00000
      4       3.9650      2.00000
      5       6.6147      2.00000
      6       6.6149      2.00000
      7       6.8489      2.00000
      8       6.8492      2.00000
      9       7.0608      2.00000
     10       7.0609      2.00000
     11       7.1679      2.00000
     12       7.1683      2.00000
     13       8.5020      2.00000
     14       8.5022      2.00000
     15       8.5559      2.00000
     16       8.5560      2.00000
     17      10.3709      1.80563
     18      10.3709      1.80520
     19      10.3888      1.57169
     20      10.3890      1.56724
     21      10.6896      0.00000
     22      10.6897      0.00000
     23      12.4317      0.00000
     24      12.4318      0.00000
     25      15.8263      0.00000
     26      15.8264      0.00000
     27      17.4779      0.00000
     28      17.4780      0.00000

 k-point   254 :       0.2500    0.1250    0.3750
  band No.  band energies     occupation 
      1       3.7273      2.00000
      2       3.7273      2.00000
      3       3.9649      2.00000
      4       3.9650      2.00000
      5       6.6146      2.00000
      6       6.6150      2.00000
      7       6.8487      2.00000
      8       6.8494      2.00000
      9       7.0607      2.00000
     10       7.0609      2.00000
     11       7.1677      2.00000
     12       7.1685      2.00000
     13       8.5017      2.00000
     14       8.5025      2.00000
     15       8.5558      2.00000
     16       8.5560      2.00000
     17      10.3708      1.80607
     18      10.3710      1.80476
     19      10.3885      1.57597
     20      10.3893      1.56297
     21      10.6895      0.00000
     22      10.6897      0.00000
     23      12.4317      0.00000
     24      12.4318      0.00000
     25      15.8262      0.00000
     26      15.8265      0.00000
     27      17.4778      0.00000
     28      17.4781      0.00000

 k-point   255 :       0.1250   -0.1250    0.5000
  band No.  band energies     occupation 
      1       3.7273      2.00000
      2       3.7273      2.00000
      3       3.9649      2.00000
      4       3.9650      2.00000
      5       6.6147      2.00000
      6       6.6149      2.00000
      7       6.8489      2.00000
      8       6.8492      2.00000
      9       7.0608      2.00000
     10       7.0609      2.00000
     11       7.1679      2.00000
     12       7.1683      2.00000
     13       8.5020      2.00000
     14       8.5022      2.00000
     15       8.5559      2.00000
     16       8.5560      2.00000
     17      10.3709      1.80563
     18      10.3709      1.80520
     19      10.3888      1.57170
     20      10.3890      1.56724
     21      10.6896      0.00000
     22      10.6897      0.00000
     23      12.4317      0.00000
     24      12.4318      0.00000
     25      15.8263      0.00000
     26      15.8264      0.00000
     27      17.4779      0.00000
     28      17.4780      0.00000

 k-point   256 :       0.1250    0.2500    0.3750
  band No.  band energies     occupation 
      1       3.7273      2.00000
      2       3.7273      2.00000
      3       3.9649      2.00000
      4       3.9650      2.00000
      5       6.6148      2.00000
      6       6.6148      2.00000
      7       6.8490      2.00000
      8       6.8491      2.00000
      9       7.0608      2.00000
     10       7.0609      2.00000
     11       7.1680      2.00000
     12       7.1682      2.00000
     13       8.5020      2.00000
     14       8.5022      2.00000
     15       8.5559      2.00000
     16       8.5560      2.00000
     17      10.3709      1.80558
     18      10.3709      1.80530
     19      10.3888      1.57100
     20      10.3890      1.56791
     21      10.6896      0.00000
     22      10.6896      0.00000
     23      12.4317      0.00000
     24      12.4318      0.00000
     25      15.8263      0.00000
     26      15.8264      0.00000
     27      17.4779      0.00000
     28      17.4780      0.00000

 k-point   257 :       0.1250    0.1250    0.3750
  band No.  band energies     occupation 
      1       3.7387      2.00000
      2       3.7387      2.00000
      3       3.7387      2.00000
      4       3.7387      2.00000
      5       6.8164      2.00000
      6       6.8166      2.00000
      7       6.8167      2.00000
      8       6.8171      2.00000
      9       6.9852      2.00000
     10       6.9853      2.00000
     11       6.9858      2.00000
     12       6.9861      2.00000
     13       9.0936      2.00000
     14       9.0937      2.00000
     15       9.0938      2.00000
     16       9.0939      2.00000
     17      10.2843      1.99982
     18      10.2845      1.99982
     19      10.2849      1.99981
     20      10.2850      1.99981
     21      11.3219      0.00000
     22      11.3219      0.00000
     23      11.3221      0.00000
     24      11.3221      0.00000
     25      16.3655      0.00000
     26      16.3655      0.00000
     27      16.3658      0.00000
     28      16.3659      0.00000

 k-point   258 :      -0.1250    0.0000    0.5000
  band No.  band energies     occupation 
      1       3.7387      2.00000
      2       3.7387      2.00000
      3       3.7387      2.00000
      4       3.7387      2.00000
      5       6.8165      2.00000
      6       6.8166      2.00000
      7       6.8168      2.00000
      8       6.8171      2.00000
      9       6.9852      2.00000
     10       6.9853      2.00000
     11       6.9858      2.00000
     12       6.9861      2.00000
     13       9.0936      2.00000
     14       9.0937      2.00000
     15       9.0938      2.00000
     16       9.0939      2.00000
     17      10.2843      1.99982
     18      10.2845      1.99982
     19      10.2849      1.99981
     20      10.2850      1.99981
     21      11.3219      0.00000
     22      11.3219      0.00000
     23      11.3220      0.00000
     24      11.3221      0.00000
     25      16.3655      0.00000
     26      16.3656      0.00000
     27      16.3658      0.00000
     28      16.3659      0.00000

 k-point   259 :       0.0000   -0.1250    0.5000
  band No.  band energies     occupation 
      1       3.7387      2.00000
      2       3.7387      2.00000
      3       3.7387      2.00000
      4       3.7387      2.00000
      5       6.8163      2.00000
      6       6.8163      2.00000
      7       6.8170      2.00000
      8       6.8172      2.00000
      9       6.9854      2.00000
     10       6.9855      2.00000
     11       6.9855      2.00000
     12       6.9859      2.00000
     13       9.0936      2.00000
     14       9.0938      2.00000
     15       9.0938      2.00000
     16       9.0938      2.00000
     17      10.2844      1.99982
     18      10.2847      1.99981
     19      10.2848      1.99981
     20      10.2848      1.99981
     21      11.3217      0.00000
     22      11.3217      0.00000
     23      11.3223      0.00000
     24      11.3223      0.00000
     25      16.3656      0.00000
     26      16.3656      0.00000
     27      16.3657      0.00000
     28      16.3658      0.00000

 k-point   260 :       0.0000    0.0000    0.5000
  band No.  band energies     occupation 
      1       3.6191      2.00000
      2       3.6191      2.00000
      3       3.6191      2.00000
      4       3.6191      2.00000
      5       6.8818      2.00000
      6       6.8819      2.00000
      7       6.8822      2.00000
      8       6.8822      2.00000
      9       6.8822      2.00000
     10       6.8826      2.00000
     11       6.8826      2.00000
     12       6.8828      2.00000
     13      10.1853      2.00000
     14      10.1855      2.00000
     15      10.1856      2.00000
     16      10.1857      2.00000
     17      10.4524      0.31291
     18      10.4524      0.31280
     19      10.4526      0.31069
     20      10.4529      0.30639
     21      10.4530      0.30555
     22      10.4530      0.30485
     23      10.4533      0.30186
     24      10.4533      0.30157
     25      15.9314      0.00000
     26      15.9315      0.00000
     27      15.9316      0.00000
     28      15.9318      0.00000


--------------------------------------------------------------------------------------------------------


 soft charge-density along one line, spin component            1
         0         1         2         3         4         5         6         7         8         9
 total charge-density along one line
 
 pseudopotential strength for first ion, spin component:            1
 -2.692  -0.000  -0.000   0.000  -0.000  -2.900  -0.000  -0.000
 -0.000  -2.692  -0.000   0.000   0.000  -0.000  -2.900  -0.000
 -0.000  -0.000  -2.650   0.000   0.000  -0.000  -0.000  -2.859
  0.000   0.000   0.000  -2.692   0.000   0.000   0.000   0.000
 -0.000   0.000   0.000   0.000  -2.650  -0.000   0.000   0.000
 -2.900  -0.000  -0.000   0.000  -0.000  -3.090  -0.000  -0.000
 -0.000  -2.900  -0.000   0.000   0.000  -0.000  -3.090  -0.000
 -0.000  -0.000  -2.859   0.000   0.000  -0.000  -0.000  -3.049
  0.000   0.000   0.000  -2.900   0.000   0.000  -0.000   0.000
 -0.000   0.000   0.000   0.000  -2.859  -0.000   0.000   0.000
 -0.000   0.000   0.000  -0.000   0.000  -0.000   0.000   0.000
 -0.000   0.000   0.000  -0.000   0.000  -0.000   0.000   0.000
 -0.000   0.000   0.000  -0.000   0.000  -0.000   0.000   0.000
 -0.000  -0.000   0.000  -0.000   0.000  -0.000  -0.000   0.000
 -0.000  -0.000   0.000   0.000  -0.000  -0.000  -0.000   0.000
 -0.000   0.000   0.000  -0.000   0.000  -0.000   0.000   0.000
 -0.000  -0.000   0.000  -0.000   0.000  -0.000  -0.000   0.000
 -0.000  -0.000   0.000   0.000  -0.000  -0.000  -0.000   0.000
 total augmentation occupancy for first ion, spin component:            1
  3.989   0.000   0.000   0.000  -0.000  -2.802  -0.000  -0.000  -0.000   0.000   0.000   0.000  -0.000   0.000  -0.000  -0.000
  0.000   3.988  -0.000   0.000  -0.000  -0.000  -2.802   0.000  -0.000  -0.000   0.000  -0.000  -0.000  -0.000   0.000   0.000
  0.000  -0.000   4.980  -0.000  -0.000  -0.000   0.000  -3.094   0.000   0.000  -0.000   0.000   0.000   0.000   0.000  -0.000
  0.000   0.000  -0.000   3.988  -0.000  -0.000  -0.000   0.000  -2.802   0.000   0.000   0.000  -0.000  -0.000   0.000   0.000
 -0.000  -0.000  -0.000  -0.000   4.979   0.000   0.000   0.000   0.000  -3.094   0.000  -0.000   0.000  -0.000  -0.000  -0.000
 -2.802  -0.000  -0.000  -0.000   0.000   3.277   0.000   0.000  -0.000   0.000  -0.000   0.000   0.000  -0.000   0.000   0.000
 -0.000  -2.802   0.000  -0.000   0.000   0.000   3.277  -0.000  -0.000  -0.000   0.000  -0.000   0.000  -0.000   0.000  -0.000
 -0.000   0.000  -3.094   0.000   0.000   0.000  -0.000   3.058  -0.000  -0.000  -0.000   0.000  -0.000   0.000   0.000   0.000
 -0.000  -0.000   0.000  -2.802   0.000  -0.000  -0.000  -0.000   3.277  -0.000  -0.000   0.000  -0.000   0.000  -0.000   0.000
  0.000  -0.000   0.000   0.000  -3.094   0.000  -0.000  -0.000  -0.000   3.058  -0.000   0.000  -0.000   0.000  -0.000   0.000
  0.000   0.000  -0.000   0.000   0.000  -0.000   0.000  -0.000  -0.000  -0.000   2.555  -0.598  -0.000  -0.000  -0.000   0.000
  0.000  -0.000   0.000   0.000  -0.000   0.000  -0.000   0.000   0.000   0.000  -0.598   0.156   0.000   0.000   0.000  -0.000
 -0.000  -0.000   0.000  -0.000   0.000   0.000   0.000  -0.000  -0.000  -0.000  -0.000   0.000   0.288   0.000  -0.000  -0.018
  0.000  -0.000   0.000  -0.000  -0.000  -0.000  -0.000   0.000   0.000   0.000  -0.000   0.000   0.000   0.288  -0.000  -0.000
 -0.000   0.000   0.000   0.000  -0.000   0.000   0.000   0.000  -0.000  -0.000  -0.000   0.000  -0.000  -0.000   0.288   0.000
 -0.000   0.000  -0.000   0.000  -0.000   0.000  -0.000   0.000   0.000   0.000   0.000  -0.000  -0.018  -0.000   0.000   0.001
 -0.000   0.000  -0.000   0.000   0.000   0.000   0.000  -0.000  -0.000  -0.000   0.000  -0.000  -0.000  -0.018   0.000   0.000
  0.000  -0.000  -0.000  -0.000   0.000  -0.000   0.000  -0.000   0.000   0.000   0.000  -0.000   0.000   0.000  -0.018  -0.000


------------------------ aborting loop because EDIFF is reached ----------------------------------------





 total charge

# of ion       s       p       d       tot
------------------------------------------
    1        0.615   0.555   8.006   9.176
    2        0.615   0.555   8.007   9.177
    3        0.615   0.555   8.007   9.177
    4        0.615   0.555   8.006   9.176
--------------------------------------------------
tot          2.461   2.220  32.026  36.706
 
    CHARGE:  cpu time    0.1708: real time    0.1709
    FORLOC:  cpu time    0.0004: real time    0.0004
    FORNL :  cpu time    1.0868: real time    1.0873
    FORCOR:  cpu time    0.0186: real time    0.0186
    FORHAR:  cpu time    0.0038: real time    0.0038
    MIXING:  cpu time    0.0006: real time    0.0006
    OFIELD:  cpu time    0.0000: real time    0.0000

 VOLUME and BASIS-vectors are now :
 -----------------------------------------------------------------------------
  energy-cutoff  :      420.00
  volume of cell :       63.34
      direct lattice vectors                 reciprocal lattice vectors
    -3.986098000  3.986098000  0.000000000     0.000000000  0.250871905 -0.000000000
    -3.986098000  0.000000000  3.986098000     0.000000000 -0.000000000  0.250871905
     3.986098000  0.000000000  0.000000000     0.250871905  0.250871905  0.250871905

  length of vectors
     5.637193853  5.637193853  3.986098000     0.250871905  0.250871905  0.434522886


 FORCES acting on ions
    electron-ion (+dipol)            ewald-force                    non-local-force                 convergence-correction
 -----------------------------------------------------------------------------------------------
   -.319E-04 -.130E-04 0.453E-05   -.485E-14 0.298E-14 -.245E-14   -.561E-05 -.536E-05 0.491E-05   0.374E-04 0.184E-04 -.742E-05
   -.330E-04 0.112E-04 -.298E-05   -.548E-14 -.364E-14 -.102E-15   -.647E-05 0.360E-05 -.341E-05   0.395E-04 -.142E-04 0.591E-05
   0.340E-04 -.153E-04 -.433E-05   0.565E-14 0.370E-14 0.786E-14   0.532E-05 -.475E-05 -.756E-05   -.385E-04 0.183E-04 0.834E-05
   0.315E-04 0.142E-04 0.202E-05   0.564E-14 -.293E-14 -.510E-14   0.587E-05 0.111E-04 0.902E-05   -.381E-04 -.222E-04 -.827E-05
 -----------------------------------------------------------------------------------------------
   0.585E-06 -.299E-05 -.760E-06   0.965E-15 0.119E-15 0.207E-15   -.890E-06 0.462E-05 0.296E-05   0.172E-06 0.188E-06 -.144E-05
 
 
 POSITION                                       TOTAL-FORCE (eV/Angst)
 -----------------------------------------------------------------------------------
      0.00000      0.00000      0.00000        -0.000000     -0.000000      0.000002
     -3.98610      1.99305      1.99305         0.000000      0.000000     -0.000001
     -1.99305      0.00000      1.99305         0.000001     -0.000002     -0.000004
     -1.99305      1.99305      0.00000        -0.000001      0.000003      0.000003
 -----------------------------------------------------------------------------------
    total drift:                               -0.000000      0.000002      0.000001


--------------------------------------------------------------------------------------------------------



  FREE ENERGIE OF THE ION-ELECTRON SYSTEM (eV)
  ---------------------------------------------------
  free  energy   TOTEN  =       -21.82889338 eV

  energy  without entropy=      -21.81626679  energy(sigma->0) =      -21.82258009
 


--------------------------------------------------------------------------------------------------------


    POTLOK:  cpu time    0.0193: real time    0.0194


--------------------------------------------------------------------------------------------------------


     LOOP+:  cpu time   38.8145: real time   38.9855
    4ORBIT:  cpu time    0.0000: real time    0.0000



 total charge

# of ion       s       p       d       tot
------------------------------------------
    1        0.615   0.555   8.006   9.176
    2        0.615   0.555   8.007   9.177
    3        0.615   0.555   8.007   9.177
    4        0.615   0.555   8.006   9.176
--------------------------------------------------
tot          2.461   2.220  32.026  36.706
 

 total amount of memory used by VASP MPI-rank0    52947. kBytes
=======================================================================

   base      :      30000. kBytes
   nonl-proj :      12001. kBytes
   fftplans  :        427. kBytes
   grid      :        604. kBytes
   one-center:         15. kBytes
   wavefun   :       9900. kBytes
 
  
  
 General timing and accounting informations for this job:
 ========================================================
  
                  Total CPU time used (sec):       41.401
                            User time (sec):       41.114
                          System time (sec):        0.287
                         Elapsed time (sec):       46.753
  
                   Maximum memory used (kb):       79600.
                   Average memory used (kb):          N/A
  
                          Minor page faults:        38214
                          Major page faults:         1422
                 Voluntary context switches:         5621
