<?xml version="1.0" encoding="ISO-8859-1"?>
<modeling>
 <generator>
  <i name="program" type="string">vasp </i>
  <i name="version" type="string">6.2.0  </i>
  <i name="subversion" type="string">18Jan21 (build Feb  1 2022 01:28:57) complex                          parallel </i>
  <i name="platform" type="string">LinuxPGI </i>
  <i name="date" type="string">2022 05 17 </i>
  <i name="time" type="string">00:41:49 </i>
 </generator>
 <incar>
  <i type="string" name="PREC">Normal</i>
  <i type="string" name="ALGO">38</i>
  <i type="int" name="ISPIN">     1</i>
  <i type="int" name="NELM">    60</i>
  <i type="int" name="NELMIN">     4</i>
  <i type="int" name="IBRION">     2</i>
  <i name="EDIFF">      0.00010000</i>
  <i name="EDIFFG">     -0.03000000</i>
  <i type="int" name="NSW">     0</i>
  <i type="int" name="ISIF">     0</i>
  <i type="int" name="ISYM">     0</i>
  <i name="SYMPREC">      0.00001000</i>
  <i name="ENCUT">    420.00000000</i>
  <i type="int" name="NBANDS">    26</i>
  <i type="logical" name="LREAL"> F  </i>
  <i type="int" name="ISMEAR">     0</i>
  <i name="SIGMA">      0.05000000</i>
  <i type="logical" name="LWAVE"> F  </i>
  <i type="logical" name="LVTOT"> F  </i>
  <i type="int" name="LORBIT">    11</i>
  <i type="logical" name="LASPH"> F  </i>
  <i type="string" name="GGA">Rp</i>
 </incar>
 <primitive_cell>
  <structure name="primitive_cell" >
   <crystal>
    <varray name="basis" >
     <v>      -3.98609800       3.98609800       0.00000000 </v>
     <v>      -3.98609800       0.00000000       3.98609800 </v>
     <v>       3.98609800       0.00000000       0.00000000 </v>
    </varray>
    <i name="volume">     63.33502050 </i>
    <varray name="rec_basis" >
     <v>       0.00000000       0.25087191      -0.00000000 </v>
     <v>       0.00000000      -0.00000000       0.25087191 </v>
     <v>       0.25087191       0.25087191       0.25087191 </v>
    </varray>
   </crystal>
   <varray name="positions" >
    <v>       0.00000000       0.00000000       0.00000000 </v>
    <v>       0.50000000       0.50000000       0.00000000 </v>
    <v>       0.00000000       0.50000000       0.00000000 </v>
    <v>       0.50000000       0.00000000       0.00000000 </v>
   </varray>
  </structure>
  <varray name="primitive_index" >
   <v type="int" >        1 </v>
   <v type="int" >        2 </v>
   <v type="int" >        3 </v>
   <v type="int" >        4 </v>
  </varray>
 </primitive_cell>
 <kpoints>
  <generation param="Gamma">
   <v type="int" name="divisions">       8        8        8 </v>
   <v name="usershift">      0.00000000       0.00000000       0.00000000 </v>
   <v name="genvec1">      0.12500000       0.00000000       0.00000000 </v>
   <v name="genvec2">      0.00000000       0.12500000       0.00000000 </v>
   <v name="genvec3">      0.00000000       0.00000000       0.12500000 </v>
   <v name="shift">      0.00000000       0.00000000       0.00000000 </v>
  </generation>
  <varray name="kpointlist" >
   <v>       0.00000000       0.00000000       0.00000000 </v>
   <v>       0.12500000       0.00000000       0.00000000 </v>
   <v>       0.00000000       0.12500000       0.00000000 </v>
   <v>      -0.12500000      -0.12500000       0.12500000 </v>
   <v>       0.25000000       0.00000000       0.00000000 </v>
   <v>       0.00000000       0.25000000       0.00000000 </v>
   <v>      -0.25000000      -0.25000000       0.25000000 </v>
   <v>       0.37500000       0.00000000       0.00000000 </v>
   <v>       0.00000000       0.37500000       0.00000000 </v>
   <v>      -0.37500000      -0.37500000       0.37500000 </v>
   <v>       0.50000000       0.00000000       0.00000000 </v>
   <v>       0.00000000       0.50000000       0.00000000 </v>
   <v>       0.50000000       0.50000000       0.50000000 </v>
   <v>       0.12500000       0.12500000       0.00000000 </v>
   <v>      -0.12500000       0.00000000       0.12500000 </v>
   <v>       0.00000000      -0.12500000       0.12500000 </v>
   <v>      -0.12500000       0.12500000       0.00000000 </v>
   <v>      -0.25000000      -0.12500000       0.12500000 </v>
   <v>      -0.12500000      -0.25000000       0.12500000 </v>
   <v>       0.25000000       0.12500000       0.00000000 </v>
   <v>      -0.12500000       0.12500000       0.12500000 </v>
   <v>      -0.12500000      -0.25000000       0.25000000 </v>
   <v>      -0.12500000       0.25000000       0.00000000 </v>
   <v>      -0.37500000      -0.12500000       0.12500000 </v>
   <v>      -0.25000000      -0.12500000       0.25000000 </v>
   <v>      -0.12500000      -0.37500000       0.12500000 </v>
   <v>      -0.37500000      -0.25000000       0.25000000 </v>
   <v>       0.12500000      -0.12500000       0.12500000 </v>
   <v>      -0.25000000      -0.37500000       0.25000000 </v>
   <v>       0.25000000      -0.12500000       0.00000000 </v>
   <v>       0.12500000       0.25000000       0.00000000 </v>
   <v>       0.37500000       0.12500000       0.00000000 </v>
   <v>      -0.12500000       0.25000000       0.12500000 </v>
   <v>      -0.25000000      -0.37500000       0.37500000 </v>
   <v>      -0.12500000       0.37500000       0.00000000 </v>
   <v>       0.50000000      -0.12500000       0.12500000 </v>
   <v>      -0.37500000      -0.25000000       0.37500000 </v>
   <v>      -0.12500000       0.50000000       0.12500000 </v>
   <v>       0.50000000      -0.37500000       0.37500000 </v>
   <v>       0.25000000      -0.12500000       0.12500000 </v>
   <v>      -0.37500000       0.50000000       0.37500000 </v>
   <v>       0.37500000      -0.12500000       0.00000000 </v>
   <v>       0.12500000       0.37500000       0.00000000 </v>
   <v>       0.50000000       0.12500000       0.00000000 </v>
   <v>      -0.12500000       0.37500000       0.12500000 </v>
   <v>      -0.37500000       0.50000000       0.50000000 </v>
   <v>      -0.12500000       0.50000000       0.00000000 </v>
   <v>       0.37500000      -0.12500000       0.12500000 </v>
   <v>       0.50000000      -0.37500000       0.50000000 </v>
   <v>       0.25000000       0.25000000       0.00000000 </v>
   <v>      -0.25000000       0.00000000       0.25000000 </v>
   <v>       0.00000000      -0.25000000       0.25000000 </v>
   <v>      -0.25000000       0.25000000       0.00000000 </v>
   <v>       0.50000000      -0.25000000       0.25000000 </v>
   <v>      -0.25000000       0.50000000       0.25000000 </v>
   <v>       0.37500000       0.25000000       0.00000000 </v>
   <v>      -0.25000000       0.12500000       0.25000000 </v>
   <v>      -0.12500000      -0.37500000       0.37500000 </v>
   <v>      -0.25000000       0.37500000       0.00000000 </v>
   <v>       0.37500000      -0.25000000       0.25000000 </v>
   <v>      -0.37500000      -0.12500000       0.37500000 </v>
   <v>      -0.25000000       0.37500000       0.25000000 </v>
   <v>       0.37500000      -0.37500000       0.37500000 </v>
   <v>       0.12500000      -0.25000000       0.25000000 </v>
   <v>      -0.37500000       0.37500000       0.37500000 </v>
   <v>       0.37500000      -0.25000000       0.00000000 </v>
   <v>       0.25000000       0.37500000       0.00000000 </v>
   <v>       0.50000000       0.25000000       0.00000000 </v>
   <v>      -0.25000000       0.25000000       0.25000000 </v>
   <v>      -0.25000000       0.50000000       0.50000000 </v>
   <v>      -0.25000000       0.50000000       0.00000000 </v>
   <v>       0.25000000      -0.25000000       0.25000000 </v>
   <v>       0.50000000      -0.25000000       0.50000000 </v>
   <v>       0.37500000       0.37500000       0.00000000 </v>
   <v>      -0.37500000       0.00000000       0.37500000 </v>
   <v>       0.00000000      -0.37500000       0.37500000 </v>
   <v>      -0.37500000       0.37500000       0.00000000 </v>
   <v>       0.25000000      -0.37500000       0.37500000 </v>
   <v>      -0.37500000       0.25000000       0.37500000 </v>
   <v>       0.50000000       0.37500000       0.00000000 </v>
   <v>      -0.37500000       0.12500000       0.37500000 </v>
   <v>      -0.12500000       0.50000000       0.50000000 </v>
   <v>      -0.37500000       0.50000000       0.00000000 </v>
   <v>       0.12500000      -0.37500000       0.37500000 </v>
   <v>       0.50000000      -0.12500000       0.50000000 </v>
   <v>       0.50000000       0.50000000       0.00000000 </v>
   <v>       0.50000000       0.00000000       0.50000000 </v>
   <v>       0.00000000       0.50000000       0.50000000 </v>
   <v>       0.00000000       0.00000000       0.12500000 </v>
   <v>      -0.25000000       0.00000000       0.12500000 </v>
   <v>      -0.25000000      -0.25000000       0.12500000 </v>
   <v>       0.00000000      -0.25000000       0.12500000 </v>
   <v>       0.12500000       0.00000000       0.12500000 </v>
   <v>       0.00000000       0.12500000       0.12500000 </v>
   <v>      -0.12500000      -0.12500000       0.25000000 </v>
   <v>      -0.25000000       0.12500000       0.12500000 </v>
   <v>      -0.37500000       0.00000000       0.12500000 </v>
   <v>      -0.37500000      -0.12500000       0.25000000 </v>
   <v>      -0.37500000      -0.25000000       0.12500000 </v>
   <v>      -0.25000000      -0.37500000       0.12500000 </v>
   <v>      -0.37500000      -0.37500000       0.25000000 </v>
   <v>       0.00000000      -0.37500000       0.12500000 </v>
   <v>       0.12500000      -0.25000000       0.12500000 </v>
   <v>      -0.12500000      -0.37500000       0.25000000 </v>
   <v>       0.25000000       0.00000000       0.12500000 </v>
   <v>       0.00000000       0.25000000       0.12500000 </v>
   <v>      -0.25000000      -0.25000000       0.37500000 </v>
   <v>      -0.25000000       0.25000000       0.12500000 </v>
   <v>       0.50000000       0.00000000       0.12500000 </v>
   <v>       0.50000000      -0.25000000       0.37500000 </v>
   <v>       0.50000000      -0.25000000       0.12500000 </v>
   <v>      -0.25000000       0.50000000       0.12500000 </v>
   <v>       0.50000000       0.50000000       0.37500000 </v>
   <v>       0.00000000       0.50000000       0.12500000 </v>
   <v>       0.25000000      -0.25000000       0.12500000 </v>
   <v>      -0.25000000       0.50000000       0.37500000 </v>
   <v>       0.37500000       0.00000000       0.12500000 </v>
   <v>       0.00000000       0.37500000       0.12500000 </v>
   <v>      -0.37500000      -0.37500000       0.50000000 </v>
   <v>      -0.25000000       0.37500000       0.12500000 </v>
   <v>       0.37500000      -0.37500000       0.50000000 </v>
   <v>       0.37500000      -0.25000000       0.12500000 </v>
   <v>       0.12500000       0.12500000       0.12500000 </v>
   <v>      -0.12500000       0.00000000       0.25000000 </v>
   <v>       0.00000000      -0.12500000       0.25000000 </v>
   <v>      -0.37500000       0.12500000       0.12500000 </v>
   <v>       0.50000000      -0.12500000       0.25000000 </v>
   <v>      -0.37500000       0.00000000       0.25000000 </v>
   <v>      -0.37500000      -0.37500000       0.12500000 </v>
   <v>      -0.37500000       0.50000000       0.25000000 </v>
   <v>       0.50000000      -0.37500000       0.25000000 </v>
   <v>       0.12500000      -0.37500000       0.12500000 </v>
   <v>       0.00000000      -0.37500000       0.25000000 </v>
   <v>      -0.12500000       0.50000000       0.25000000 </v>
   <v>       0.25000000       0.12500000       0.12500000 </v>
   <v>      -0.12500000       0.12500000       0.25000000 </v>
   <v>      -0.12500000      -0.25000000       0.37500000 </v>
   <v>      -0.37500000       0.25000000       0.12500000 </v>
   <v>       0.37500000      -0.12500000       0.25000000 </v>
   <v>       0.50000000      -0.12500000       0.37500000 </v>
   <v>       0.50000000      -0.37500000       0.12500000 </v>
   <v>      -0.37500000       0.37500000       0.25000000 </v>
   <v>       0.37500000       0.50000000       0.37500000 </v>
   <v>       0.12500000       0.50000000       0.12500000 </v>
   <v>       0.12500000      -0.37500000       0.25000000 </v>
   <v>      -0.25000000       0.37500000       0.37500000 </v>
   <v>       0.37500000      -0.12500000      -0.25000000 </v>
   <v>      -0.37500000       0.25000000      -0.37500000 </v>
   <v>       0.50000000      -0.12500000      -0.12500000 </v>
   <v>       0.50000000      -0.37500000      -0.37500000 </v>
   <v>       0.37500000       0.50000000      -0.12500000 </v>
   <v>      -0.37500000       0.37500000      -0.25000000 </v>
   <v>       0.12500000       0.50000000      -0.37500000 </v>
   <v>      -0.25000000       0.37500000      -0.12500000 </v>
   <v>       0.12500000      -0.37500000      -0.25000000 </v>
   <v>      -0.12500000       0.12500000      -0.25000000 </v>
   <v>      -0.12500000      -0.25000000      -0.12500000 </v>
   <v>       0.25000000       0.12500000      -0.37500000 </v>
   <v>       0.37500000       0.12500000       0.12500000 </v>
   <v>      -0.12500000       0.25000000       0.25000000 </v>
   <v>      -0.25000000      -0.37500000       0.50000000 </v>
   <v>      -0.37500000       0.37500000       0.12500000 </v>
   <v>       0.25000000      -0.12500000       0.25000000 </v>
   <v>       0.37500000      -0.25000000       0.50000000 </v>
   <v>       0.37500000      -0.37500000       0.12500000 </v>
   <v>      -0.37500000       0.25000000       0.25000000 </v>
   <v>       0.12500000       0.37500000       0.12500000 </v>
   <v>       0.25000000      -0.37500000       0.25000000 </v>
   <v>      -0.25000000       0.37500000       0.50000000 </v>
   <v>      -0.37500000      -0.25000000       0.50000000 </v>
   <v>       0.25000000       0.25000000       0.12500000 </v>
   <v>      -0.25000000       0.00000000       0.37500000 </v>
   <v>       0.00000000      -0.25000000       0.37500000 </v>
   <v>       0.50000000       0.25000000       0.12500000 </v>
   <v>       0.25000000      -0.25000000       0.37500000 </v>
   <v>       0.50000000       0.00000000       0.37500000 </v>
   <v>       0.50000000       0.50000000       0.12500000 </v>
   <v>       0.50000000       0.25000000       0.37500000 </v>
   <v>       0.25000000       0.50000000       0.37500000 </v>
   <v>       0.25000000       0.50000000       0.12500000 </v>
   <v>       0.00000000       0.50000000       0.37500000 </v>
   <v>      -0.25000000       0.25000000       0.37500000 </v>
   <v>       0.37500000       0.25000000       0.12500000 </v>
   <v>      -0.25000000       0.12500000       0.37500000 </v>
   <v>      -0.12500000      -0.37500000       0.50000000 </v>
   <v>       0.50000000       0.37500000       0.12500000 </v>
   <v>       0.12500000      -0.25000000       0.37500000 </v>
   <v>       0.37500000      -0.12500000       0.50000000 </v>
   <v>       0.37500000       0.50000000       0.12500000 </v>
   <v>       0.50000000       0.12500000       0.37500000 </v>
   <v>       0.25000000       0.37500000       0.12500000 </v>
   <v>       0.12500000       0.50000000       0.37500000 </v>
   <v>      -0.12500000       0.37500000       0.50000000 </v>
   <v>      -0.37500000      -0.12500000       0.50000000 </v>
   <v>       0.37500000       0.37500000       0.12500000 </v>
   <v>      -0.37500000       0.00000000       0.50000000 </v>
   <v>       0.00000000      -0.37500000       0.50000000 </v>
   <v>       0.00000000       0.00000000       0.25000000 </v>
   <v>       0.50000000       0.00000000       0.25000000 </v>
   <v>       0.50000000       0.50000000       0.25000000 </v>
   <v>       0.00000000       0.50000000       0.25000000 </v>
   <v>       0.12500000       0.00000000       0.25000000 </v>
   <v>       0.00000000       0.12500000       0.25000000 </v>
   <v>      -0.12500000      -0.12500000       0.37500000 </v>
   <v>       0.50000000       0.12500000       0.25000000 </v>
   <v>       0.37500000       0.00000000       0.25000000 </v>
   <v>       0.37500000      -0.12500000       0.37500000 </v>
   <v>       0.37500000       0.50000000       0.25000000 </v>
   <v>       0.50000000       0.37500000       0.25000000 </v>
   <v>       0.37500000       0.37500000       0.37500000 </v>
   <v>       0.00000000       0.37500000       0.25000000 </v>
   <v>       0.12500000       0.50000000       0.25000000 </v>
   <v>      -0.12500000       0.37500000       0.37500000 </v>
   <v>       0.25000000       0.00000000       0.25000000 </v>
   <v>       0.00000000       0.25000000       0.25000000 </v>
   <v>      -0.25000000      -0.25000000       0.50000000 </v>
   <v>       0.50000000       0.25000000       0.25000000 </v>
   <v>       0.25000000      -0.25000000       0.50000000 </v>
   <v>       0.25000000       0.50000000       0.25000000 </v>
   <v>       0.12500000       0.12500000       0.25000000 </v>
   <v>      -0.12500000       0.00000000       0.37500000 </v>
   <v>       0.00000000      -0.12500000       0.37500000 </v>
   <v>       0.37500000       0.12500000       0.25000000 </v>
   <v>       0.25000000      -0.12500000       0.37500000 </v>
   <v>       0.37500000       0.00000000       0.37500000 </v>
   <v>       0.37500000       0.37500000       0.25000000 </v>
   <v>       0.37500000       0.25000000       0.37500000 </v>
   <v>       0.25000000       0.37500000       0.37500000 </v>
   <v>       0.12500000       0.37500000       0.25000000 </v>
   <v>       0.00000000       0.37500000       0.37500000 </v>
   <v>      -0.12500000       0.25000000       0.37500000 </v>
   <v>       0.25000000       0.12500000       0.25000000 </v>
   <v>      -0.12500000       0.12500000       0.37500000 </v>
   <v>      -0.12500000      -0.25000000       0.50000000 </v>
   <v>       0.37500000       0.25000000       0.25000000 </v>
   <v>       0.12500000      -0.12500000       0.37500000 </v>
   <v>       0.25000000      -0.12500000       0.50000000 </v>
   <v>       0.25000000       0.37500000       0.25000000 </v>
   <v>       0.37500000       0.12500000       0.37500000 </v>
   <v>       0.12500000       0.25000000       0.25000000 </v>
   <v>       0.12500000       0.37500000       0.37500000 </v>
   <v>      -0.12500000       0.25000000       0.50000000 </v>
   <v>      -0.25000000      -0.12500000       0.50000000 </v>
   <v>       0.25000000       0.25000000       0.25000000 </v>
   <v>      -0.25000000       0.00000000       0.50000000 </v>
   <v>       0.00000000      -0.25000000       0.50000000 </v>
   <v>       0.00000000       0.00000000       0.37500000 </v>
   <v>       0.25000000       0.00000000       0.37500000 </v>
   <v>       0.25000000       0.25000000       0.37500000 </v>
   <v>       0.00000000       0.25000000       0.37500000 </v>
   <v>       0.12500000       0.00000000       0.37500000 </v>
   <v>       0.00000000       0.12500000       0.37500000 </v>
   <v>      -0.12500000      -0.12500000       0.50000000 </v>
   <v>       0.25000000       0.12500000       0.37500000 </v>
   <v>       0.12500000      -0.12500000       0.50000000 </v>
   <v>       0.12500000       0.25000000       0.37500000 </v>
   <v>       0.12500000       0.12500000       0.37500000 </v>
   <v>      -0.12500000       0.00000000       0.50000000 </v>
   <v>       0.00000000      -0.12500000       0.50000000 </v>
   <v>       0.00000000       0.00000000       0.50000000 </v>
  </varray>
  <varray name="weights" >
   <v>       0.00195313 </v>
   <v>       0.00390625 </v>
   <v>       0.00390625 </v>
   <v>       0.00390625 </v>
   <v>       0.00390625 </v>
   <v>       0.00390625 </v>
   <v>       0.00390625 </v>
   <v>       0.00390625 </v>
   <v>       0.00390625 </v>
   <v>       0.00390625 </v>
   <v>       0.00195313 </v>
   <v>       0.00195313 </v>
   <v>       0.00195313 </v>
   <v>       0.00390625 </v>
   <v>       0.00390625 </v>
   <v>       0.00390625 </v>
   <v>       0.00390625 </v>
   <v>       0.00390625 </v>
   <v>       0.00390625 </v>
   <v>       0.00390625 </v>
   <v>       0.00390625 </v>
   <v>       0.00390625 </v>
   <v>       0.00390625 </v>
   <v>       0.00390625 </v>
   <v>       0.00390625 </v>
   <v>       0.00390625 </v>
   <v>       0.00390625 </v>
   <v>       0.00390625 </v>
   <v>       0.00390625 </v>
   <v>       0.00390625 </v>
   <v>       0.00390625 </v>
   <v>       0.00390625 </v>
   <v>       0.00390625 </v>
   <v>       0.00390625 </v>
   <v>       0.00390625 </v>
   <v>       0.00390625 </v>
   <v>       0.00390625 </v>
   <v>       0.00390625 </v>
   <v>       0.00390625 </v>
   <v>       0.00390625 </v>
   <v>       0.00390625 </v>
   <v>       0.00390625 </v>
   <v>       0.00390625 </v>
   <v>       0.00390625 </v>
   <v>       0.00390625 </v>
   <v>       0.00390625 </v>
   <v>       0.00390625 </v>
   <v>       0.00390625 </v>
   <v>       0.00390625 </v>
   <v>       0.00390625 </v>
   <v>       0.00390625 </v>
   <v>       0.00390625 </v>
   <v>       0.00390625 </v>
   <v>       0.00390625 </v>
   <v>       0.00390625 </v>
   <v>       0.00390625 </v>
   <v>       0.00390625 </v>
   <v>       0.00390625 </v>
   <v>       0.00390625 </v>
   <v>       0.00390625 </v>
   <v>       0.00390625 </v>
   <v>       0.00390625 </v>
   <v>       0.00390625 </v>
   <v>       0.00390625 </v>
   <v>       0.00390625 </v>
   <v>       0.00390625 </v>
   <v>       0.00390625 </v>
   <v>       0.00390625 </v>
   <v>       0.00390625 </v>
   <v>       0.00390625 </v>
   <v>       0.00390625 </v>
   <v>       0.00390625 </v>
   <v>       0.00390625 </v>
   <v>       0.00390625 </v>
   <v>       0.00390625 </v>
   <v>       0.00390625 </v>
   <v>       0.00390625 </v>
   <v>       0.00390625 </v>
   <v>       0.00390625 </v>
   <v>       0.00390625 </v>
   <v>       0.00390625 </v>
   <v>       0.00390625 </v>
   <v>       0.00390625 </v>
   <v>       0.00390625 </v>
   <v>       0.00390625 </v>
   <v>       0.00195313 </v>
   <v>       0.00195313 </v>
   <v>       0.00195313 </v>
   <v>       0.00390625 </v>
   <v>       0.00390625 </v>
   <v>       0.00390625 </v>
   <v>       0.00390625 </v>
   <v>       0.00390625 </v>
   <v>       0.00390625 </v>
   <v>       0.00390625 </v>
   <v>       0.00390625 </v>
   <v>       0.00390625 </v>
   <v>       0.00390625 </v>
   <v>       0.00390625 </v>
   <v>       0.00390625 </v>
   <v>       0.00390625 </v>
   <v>       0.00390625 </v>
   <v>       0.00390625 </v>
   <v>       0.00390625 </v>
   <v>       0.00390625 </v>
   <v>       0.00390625 </v>
   <v>       0.00390625 </v>
   <v>       0.00390625 </v>
   <v>       0.00390625 </v>
   <v>       0.00390625 </v>
   <v>       0.00390625 </v>
   <v>       0.00390625 </v>
   <v>       0.00390625 </v>
   <v>       0.00390625 </v>
   <v>       0.00390625 </v>
   <v>       0.00390625 </v>
   <v>       0.00390625 </v>
   <v>       0.00390625 </v>
   <v>       0.00390625 </v>
   <v>       0.00390625 </v>
   <v>       0.00390625 </v>
   <v>       0.00390625 </v>
   <v>       0.00390625 </v>
   <v>       0.00390625 </v>
   <v>       0.00390625 </v>
   <v>       0.00390625 </v>
   <v>       0.00390625 </v>
   <v>       0.00390625 </v>
   <v>       0.00390625 </v>
   <v>       0.00390625 </v>
   <v>       0.00390625 </v>
   <v>       0.00390625 </v>
   <v>       0.00390625 </v>
   <v>       0.00390625 </v>
   <v>       0.00390625 </v>
   <v>       0.00390625 </v>
   <v>       0.00390625 </v>
   <v>       0.00390625 </v>
   <v>       0.00390625 </v>
   <v>       0.00390625 </v>
   <v>       0.00390625 </v>
   <v>       0.00390625 </v>
   <v>       0.00390625 </v>
   <v>       0.00390625 </v>
   <v>       0.00390625 </v>
   <v>       0.00390625 </v>
   <v>       0.00390625 </v>
   <v>       0.00390625 </v>
   <v>       0.00390625 </v>
   <v>       0.00390625 </v>
   <v>       0.00390625 </v>
   <v>       0.00390625 </v>
   <v>       0.00390625 </v>
   <v>       0.00390625 </v>
   <v>       0.00390625 </v>
   <v>       0.00390625 </v>
   <v>       0.00390625 </v>
   <v>       0.00390625 </v>
   <v>       0.00390625 </v>
   <v>       0.00390625 </v>
   <v>       0.00390625 </v>
   <v>       0.00390625 </v>
   <v>       0.00390625 </v>
   <v>       0.00390625 </v>
   <v>       0.00390625 </v>
   <v>       0.00390625 </v>
   <v>       0.00390625 </v>
   <v>       0.00390625 </v>
   <v>       0.00390625 </v>
   <v>       0.00390625 </v>
   <v>       0.00390625 </v>
   <v>       0.00390625 </v>
   <v>       0.00390625 </v>
   <v>       0.00390625 </v>
   <v>       0.00390625 </v>
   <v>       0.00390625 </v>
   <v>       0.00390625 </v>
   <v>       0.00390625 </v>
   <v>       0.00390625 </v>
   <v>       0.00390625 </v>
   <v>       0.00390625 </v>
   <v>       0.00390625 </v>
   <v>       0.00390625 </v>
   <v>       0.00390625 </v>
   <v>       0.00390625 </v>
   <v>       0.00390625 </v>
   <v>       0.00390625 </v>
   <v>       0.00390625 </v>
   <v>       0.00390625 </v>
   <v>       0.00390625 </v>
   <v>       0.00390625 </v>
   <v>       0.00390625 </v>
   <v>       0.00390625 </v>
   <v>       0.00390625 </v>
   <v>       0.00390625 </v>
   <v>       0.00390625 </v>
   <v>       0.00390625 </v>
   <v>       0.00390625 </v>
   <v>       0.00390625 </v>
   <v>       0.00390625 </v>
   <v>       0.00390625 </v>
   <v>       0.00390625 </v>
   <v>       0.00390625 </v>
   <v>       0.00390625 </v>
   <v>       0.00390625 </v>
   <v>       0.00390625 </v>
   <v>       0.00390625 </v>
   <v>       0.00390625 </v>
   <v>       0.00390625 </v>
   <v>       0.00390625 </v>
   <v>       0.00390625 </v>
   <v>       0.00390625 </v>
   <v>       0.00390625 </v>
   <v>       0.00390625 </v>
   <v>       0.00390625 </v>
   <v>       0.00390625 </v>
   <v>       0.00390625 </v>
   <v>       0.00390625 </v>
   <v>       0.00390625 </v>
   <v>       0.00390625 </v>
   <v>       0.00390625 </v>
   <v>       0.00390625 </v>
   <v>       0.00390625 </v>
   <v>       0.00390625 </v>
   <v>       0.00390625 </v>
   <v>       0.00390625 </v>
   <v>       0.00390625 </v>
   <v>       0.00390625 </v>
   <v>       0.00390625 </v>
   <v>       0.00390625 </v>
   <v>       0.00390625 </v>
   <v>       0.00390625 </v>
   <v>       0.00390625 </v>
   <v>       0.00390625 </v>
   <v>       0.00390625 </v>
   <v>       0.00390625 </v>
   <v>       0.00390625 </v>
   <v>       0.00390625 </v>
   <v>       0.00390625 </v>
   <v>       0.00390625 </v>
   <v>       0.00390625 </v>
   <v>       0.00390625 </v>
   <v>       0.00390625 </v>
   <v>       0.00390625 </v>
   <v>       0.00390625 </v>
   <v>       0.00390625 </v>
   <v>       0.00390625 </v>
   <v>       0.00390625 </v>
   <v>       0.00390625 </v>
   <v>       0.00390625 </v>
   <v>       0.00390625 </v>
   <v>       0.00390625 </v>
   <v>       0.00390625 </v>
   <v>       0.00390625 </v>
   <v>       0.00390625 </v>
   <v>       0.00390625 </v>
   <v>       0.00390625 </v>
   <v>       0.00390625 </v>
   <v>       0.00390625 </v>
   <v>       0.00195313 </v>
  </varray>
 </kpoints>
 <parameters>
  <separator name="general" >
   <i type="string" name="SYSTEM">unknown system</i>
   <i type="logical" name="LCOMPAT"> F  </i>
  </separator>
  <separator name="electronic" >
   <i type="string" name="PREC">normal</i>
   <i name="ENMAX">    420.00000000</i>
   <i name="ENAUG">    358.96600000</i>
   <i name="EDIFF">      0.00010000</i>
   <i type="int" name="IALGO">    38</i>
   <i type="int" name="IWAVPR">    10</i>
   <i type="int" name="NBANDS">    28</i>
   <i type="int" name="NBANDSLOW">    -1</i>
   <i type="int" name="NBANDSHIGH">    -1</i>
   <i name="NELECT">     40.00000000</i>
   <i type="int" name="TURBO">     0</i>
   <i type="int" name="IRESTART">     0</i>
   <i type="int" name="NREBOOT">     0</i>
   <i type="int" name="NMIN">     0</i>
   <i name="EREF">      0.00000000</i>
   <separator name="electronic smearing" >
    <i type="int" name="ISMEAR">     0</i>
    <i name="SIGMA">      0.05000000</i>
    <i name="KSPACING">      0.50000000</i>
    <i type="logical" name="KGAMMA"> T  </i>
    <i type="logical" name="KBLOWUP"> T  </i>
   </separator>
   <separator name="electronic projectors" >
    <i type="logical" name="LREAL"> F  </i>
    <v name="ROPT">      0.00000000</v>
    <i type="int" name="LMAXPAW">  -100</i>
    <i type="int" name="LMAXMIX">     2</i>
    <i type="logical" name="NLSPLINE"> F  </i>
   </separator>
   <separator name="electronic startup" >
    <i type="int" name="ISTART">     0</i>
    <i type="int" name="ICHARG">     2</i>
    <i type="int" name="INIWAV">     1</i>
   </separator>
   <separator name="electronic spin" >
    <i type="int" name="ISPIN">     1</i>
    <i type="logical" name="LNONCOLLINEAR"> F  </i>
    <v name="MAGMOM">      1.00000000      1.00000000      1.00000000      1.00000000</v>
    <i name="NUPDOWN">     -1.00000000</i>
    <i type="logical" name="LSORBIT"> F  </i>
    <v name="SAXIS">      0.00000000      0.00000000      1.00000000</v>
    <i type="logical" name="LSPIRAL"> F  </i>
    <v name="QSPIRAL">      0.00000000      0.00000000      0.00000000</v>
    <i type="logical" name="LZEROZ"> F  </i>
   </separator>
   <separator name="electronic exchange-correlation" >
    <i type="logical" name="LASPH"> F  </i>
    <i type="logical" name="LMETAGGA"> F  </i>
   </separator>
   <separator name="electronic convergence" >
    <i type="int" name="NELM">    60</i>
    <i type="int" name="NELMDL">     0</i>
    <i type="int" name="NELMIN">     4</i>
    <i name="ENINI">    420.00000000</i>
    <separator name="electronic convergence detail" >
     <i type="logical" name="LDIAG"> T  </i>
     <i type="logical" name="LSUBROT"> F  </i>
     <i name="WEIMIN">      0.00000000</i>
     <i name="EBREAK">      0.00000089</i>
     <i name="DEPER">      0.30000000</i>
     <i type="int" name="NRMM">     4</i>
     <i name="TIME">      0.40000000</i>
    </separator>
   </separator>
   <separator name="electronic mixer" >
    <i name="AMIX">      0.40000000</i>
    <i name="BMIX">      1.00000000</i>
    <i name="AMIN">      0.10000000</i>
    <i name="AMIX_MAG">      1.60000000</i>
    <i name="BMIX_MAG">      1.00000000</i>
    <separator name="electronic mixer details" >
     <i type="int" name="IMIX">     4</i>
     <i type="logical" name="MIXFIRST"> F  </i>
     <i type="int" name="MAXMIX">   -45</i>
     <i name="WC">    100.00000000</i>
     <i type="int" name="INIMIX">     1</i>
     <i type="int" name="MIXPRE">     1</i>
     <i type="int" name="MREMOVE">     5</i>
    </separator>
   </separator>
   <separator name="electronic dipolcorrection" >
    <i type="logical" name="LDIPOL"> F  </i>
    <i type="logical" name="LMONO"> F  </i>
    <i type="int" name="IDIPOL">     0</i>
    <i name="EPSILON">      1.00000000</i>
    <v name="DIPOL">   -100.00000000   -100.00000000   -100.00000000</v>
    <i name="EFIELD">      0.00000000</i>
   </separator>
  </separator>
  <separator name="grids" >
   <i type="int" name="NGX">    28</i>
   <i type="int" name="NGY">    28</i>
   <i type="int" name="NGZ">    20</i>
   <i type="int" name="NGXF">    56</i>
   <i type="int" name="NGYF">    56</i>
   <i type="int" name="NGZF">    40</i>
   <i type="logical" name="ADDGRID"> F  </i>
  </separator>
  <separator name="ionic" >
   <i type="int" name="NSW">     0</i>
   <i type="int" name="IBRION">    -1</i>
   <i type="int" name="MDALGO">     0</i>
   <i type="int" name="ISIF">     0</i>
   <i name="PSTRESS">      0.00000000</i>
   <i name="EDIFFG">     -0.03000000</i>
   <i type="int" name="NFREE">     1</i>
   <i name="POTIM">      0.50000000</i>
   <i name="SMASS">     -3.00000000</i>
   <i name="SCALEE">      1.00000000</i>
  </separator>
  <separator name="ionic md" >
   <i name="TEBEG">      0.00010000</i>
   <i name="TEEND">      0.00010000</i>
   <i type="int" name="NBLOCK">     1</i>
   <i type="int" name="KBLOCK">     1</i>
   <i type="int" name="NPACO">   256</i>
   <i name="APACO">     16.00000000</i>
  </separator>
  <separator name="symmetry" >
   <i type="int" name="ISYM">     0</i>
   <i name="SYMPREC">      0.00001000</i>
  </separator>
  <separator name="dos" >
   <i type="int" name="LORBIT">    11</i>
   <v name="RWIGS">     -1.00000000</v>
   <i type="int" name="NEDOS">   301</i>
   <i name="EMIN">     10.00000000</i>
   <i name="EMAX">    -10.00000000</i>
   <i name="EFERMI">      0.00000000</i>
  </separator>
  <separator name="writing" >
   <i type="int" name="NWRITE">     2</i>
   <i type="logical" name="LWAVE"> F  </i>
   <i type="logical" name="LDOWNSAMPLE"> F  </i>
   <i type="logical" name="LCHARG"> T  </i>
   <i type="logical" name="LPARD"> F  </i>
   <i type="logical" name="LVTOT"> F  </i>
   <i type="logical" name="LVHAR"> F  </i>
   <i type="logical" name="LELF"> F  </i>
   <i type="logical" name="LOPTICS"> F  </i>
   <v name="STM">      0.00000000      0.00000000      0.00000000      0.00000000      0.00000000      0.00000000      0.00000000</v>
  </separator>
  <separator name="performance" >
   <i type="int" name="NPAR">     4</i>
   <i type="int" name="NSIM">     4</i>
   <i type="int" name="NBLK">    -1</i>
   <i type="logical" name="LPLANE"> T  </i>
   <i type="logical" name="LSCALAPACK"> T  </i>
   <i type="logical" name="LSCAAWARE"> F  </i>
   <i type="logical" name="LSCALU"> F  </i>
   <i type="logical" name="LASYNC"> F  </i>
   <i type="logical" name="LORBITALREAL"> F  </i>
  </separator>
  <separator name="miscellaneous" >
   <i type="int" name="IDIOT">     3</i>
   <i type="int" name="PHON_NSTRUCT">    -1</i>
   <i type="logical" name="LMUSIC"> F  </i>
   <v name="POMASS">    195.08000000</v>
   <v name="DARWINR">      0.00000000</v>
   <v name="DARWINV">      1.00000000</v>
   <i type="logical" name="LCORR"> T  </i>
  </separator>
  <i type="logical" name="GGA_COMPAT"> T  </i>
  <i type="logical" name="LBERRY"> F  </i>
  <i type="int" name="ICORELEVEL">     0</i>
  <i type="logical" name="LDAU"> F  </i>
  <i type="int" name="I_CONSTRAINED_M">     0</i>
  <separator name="electronic exchange-correlation" >
   <i type="string" name="GGA">RP</i>
   <i type="int" name="VOSKOWN">     0</i>
   <i type="logical" name="LHFCALC"> F  </i>
   <i type="string" name="PRECFOCK"></i>
   <i type="logical" name="LSYMGRAD"> F  </i>
   <i type="logical" name="LHFONE"> F  </i>
   <i type="logical" name="LRHFCALC"> F  </i>
   <i type="logical" name="LTHOMAS"> F  </i>
   <i type="logical" name="LMODELHF"> F  </i>
   <i type="logical" name="LFOCKACE"> F  </i>
   <i name="ENCUT4O">     -1.00000000</i>
   <i type="int" name="EXXOEP">     0</i>
   <i type="int" name="FOURORBIT">     0</i>
   <i name="AEXX">      0.00000000</i>
   <i name="HFALPHA">      0.00000000</i>
   <i name="MCALPHA">      0.00000000</i>
   <i name="ALDAX">      1.00000000</i>
   <i name="AGGAX">      1.00000000</i>
   <i name="ALDAC">      1.00000000</i>
   <i name="AGGAC">      1.00000000</i>
   <i type="int" name="NKREDX">     1</i>
   <i type="int" name="NKREDY">     1</i>
   <i type="int" name="NKREDZ">     1</i>
   <i type="logical" name="SHIFTRED"> F  </i>
   <i type="logical" name="ODDONLY"> F  </i>
   <i type="logical" name="EVENONLY"> F  </i>
   <i type="int" name="LMAXFOCK">     0</i>
   <i type="int" name="NMAXFOCKAE">     0</i>
   <i type="logical" name="LFOCKAEDFT"> F  </i>
   <i name="HFSCREEN">      0.00000000</i>
   <i name="HFSCREENC">      0.00000000</i>
   <i type="int" name="NBANDSGWLOW">     0</i>
  </separator>
  <separator name="vdW DFT" >
   <i type="logical" name="LUSE_VDW"> F  </i>
   <i name="Zab_VDW">     -0.84910000</i>
   <i name="PARAM1">      0.12340000</i>
   <i name="PARAM2">      1.00000000</i>
   <i name="PARAM3">      0.00000000</i>
  </separator>
  <separator name="model GW" >
   <i type="int" name="MODEL_GW">     0</i>
   <i name="MODEL_EPS0">      9.50025308</i>
   <i name="MODEL_ALPHA">      1.00000000</i>
  </separator>
  <separator name="linear response parameters" >
   <i type="logical" name="LEPSILON"> F  </i>
   <i type="logical" name="LRPA"> F  </i>
   <i type="logical" name="LNABLA"> F  </i>
   <i type="logical" name="LVEL"> F  </i>
   <i type="int" name="KINTER">     0</i>
   <i name="CSHIFT">      0.10000000</i>
   <i name="OMEGAMAX">     -1.00000000</i>
   <i name="DEG_THRESHOLD">      0.00200000</i>
   <i name="RTIME">     -0.10000000</i>
   <i name="WPLASMAI">      0.00000000</i>
   <v name="DFIELD">      0.00000000      0.00000000      0.00000000</v>
   <v name="WPLASMA">      0.00000000      0.00000000      0.00000000      0.00000000      0.00000000      0.00000000      0.00000000      0.00000000      0.00000000</v>
  </separator>
  <separator name="orbital magnetization" >
   <i type="logical" name="NUCIND"> F  </i>
   <v name="MAGPOS">      0.00000000      0.00000000      0.00000000</v>
   <i type="logical" name="LNICSALL"> T  </i>
   <i type="logical" name="ORBITALMAG"> F  </i>
   <i type="logical" name="LMAGBLOCH"> F  </i>
   <i type="logical" name="LCHIMAG"> F  </i>
   <i type="logical" name="LGAUGE"> T  </i>
   <i type="int" name="MAGATOM">     0</i>
   <v name="MAGDIPOL">      0.00000000      0.00000000      0.00000000</v>
   <v name="AVECCONST">      0.00000000      0.00000000      0.00000000</v>
  </separator>
  <separator name="response functions" >
   <i type="logical" name="LFINITE_TEMPERATURE"> F  </i>
   <i type="logical" name="LADDER"> F  </i>
   <i type="logical" name="LRPAFORCE"> F  </i>
   <i type="logical" name="LFXC"> F  </i>
   <i type="logical" name="LHARTREE"> T  </i>
   <i type="int" name="IBSE">     0</i>
   <v type="int" name="KPOINT">    -1     0     0     0</v>
   <i type="logical" name="LTCTC"> F  </i>
   <i type="logical" name="LTCTE"> F  </i>
   <i type="logical" name="LTETE"> F  </i>
   <i type="logical" name="LTRIPLET"> F  </i>
   <i type="logical" name="LFXCEPS"> F  </i>
   <i type="logical" name="LFXHEG"> F  </i>
   <i type="int" name="NATURALO">     2</i>
   <i type="logical" name="LHOLEGF"> F  </i>
   <i type="logical" name="L2ORDER"> F  </i>
   <i type="logical" name="LDMP1"> F  </i>
   <i type="logical" name="LMP2LT"> F  </i>
   <i type="logical" name="LSMP2LT"> F  </i>
   <i type="logical" name="LGWLF"> F  </i>
   <i name="ENCUTGW">     -2.00000000</i>
   <i name="ENCUTGWSOFT">     -2.00000000</i>
   <i name="ENCUTLF">     -1.00000000</i>
   <i type="logical" name="LESF_SPLINES"> F  </i>
   <i type="int" name="LMAXMP2">    -1</i>
   <i name="SCISSOR">      0.00000000</i>
   <i type="int" name="NOMEGA">     0</i>
   <i type="int" name="NOMEGAR">     0</i>
   <i type="int" name="NBANDSGW">    -1</i>
   <i type="int" name="NBANDSO">    -1</i>
   <i type="int" name="NBANDSV">    -1</i>
   <i type="int" name="NELM">    60</i>
   <i type="int" name="NELMHF">     1</i>
   <i type="int" name="DIM">     3</i>
   <i type="int" name="IESPILON">     4</i>
   <i type="int" name="ANTIRES">     0</i>
   <i name="OMEGAMAX">    -30.00000000</i>
   <i name="OMEGAMIN">    -30.00000000</i>
   <i name="OMEGATL">   -200.00000000</i>
   <i type="int" name="OMEGAGRID">     0</i>
   <i name="CSHIFT">     -0.10000000</i>
   <i type="logical" name="LSELFENERGY"> F  </i>
   <i type="logical" name="LSPECTRAL"> F  </i>
   <i type="logical" name="LSPECTRALGW"> F  </i>
   <i type="logical" name="LSINGLES"> F  </i>
   <i type="logical" name="LFERMIGW"> F  </i>
   <i type="logical" name="ODDONLYGW"> F  </i>
   <i type="logical" name="EVENONLYGW"> F  </i>
   <i type="int" name="NKREDLFX">     1</i>
   <i type="int" name="NKREDLFY">     1</i>
   <i type="int" name="NKREDLFZ">     1</i>
   <i type="int" name="MAXMEM">  2800</i>
   <i type="int" name="TELESCOPE">     0</i>
   <i type="int" name="NTAUPAR">    -1</i>
   <i type="int" name="NOMEGAPAR">    -1</i>
   <i name="DAMP_NEWTON">      0.80000001</i>
   <i name="LAMBDA">      1.00000000</i>
  </separator>
  <separator name="External order field" >
   <i name="OFIELD_KAPPA">      0.00000000</i>
   <v name="OFIELD_K">      0.00000000      0.00000000      0.00000000</v>
   <i name="OFIELD_Q6_NEAR">      0.00000000</i>
   <i name="OFIELD_Q6_FAR">      0.00000000</i>
   <i name="OFIELD_A">      0.00000000</i>
  </separator>
 </parameters>
 <atominfo>
  <atoms>       4 </atoms>
  <types>       1 </types>
  <array name="atoms" >
   <dimension dim="1">ion</dimension>
   <field type="string">element</field>
   <field type="int">atomtype</field>
   <set>
    <rc><c>Pt</c><c>   1</c></rc>
    <rc><c>Pt</c><c>   1</c></rc>
    <rc><c>Pt</c><c>   1</c></rc>
    <rc><c>Pt</c><c>   1</c></rc>
   </set>
  </array>
  <array name="atomtypes" >
   <dimension dim="1">type</dimension>
   <field type="int">atomspertype</field>
   <field type="string">element</field>
   <field>mass</field>
   <field>valence</field>
   <field type="string">pseudopotential</field>
   <set>
    <rc><c>   4</c><c>Pt</c><c>    195.08000000</c><c>     10.00000000</c><c>  PAW_PBE Pt 04Feb2005                  </c></rc>
   </set>
  </array>
 </atominfo>
 <structure name="initialpos" >
  <crystal>
   <varray name="basis" >
    <v>      -3.98609800       3.98609800       0.00000000 </v>
    <v>      -3.98609800       0.00000000       3.98609800 </v>
    <v>       3.98609800       0.00000000       0.00000000 </v>
   </varray>
   <i name="volume">     63.33502050 </i>
   <varray name="rec_basis" >
    <v>       0.00000000       0.25087191      -0.00000000 </v>
    <v>       0.00000000      -0.00000000       0.25087191 </v>
    <v>       0.25087191       0.25087191       0.25087191 </v>
   </varray>
  </crystal>
  <varray name="positions" >
   <v>       0.00000000       0.00000000       0.00000000 </v>
   <v>       0.50000000       0.50000000       0.00000000 </v>
   <v>       0.00000000       0.50000000       0.00000000 </v>
   <v>       0.50000000       0.00000000       0.00000000 </v>
  </varray>
 </structure>
 <calculation>
  <scstep>
   <time name="dav">    3.67    3.68</time>
   <time name="total">    3.70    3.73</time>
   <energy>
    <i name="alphaZ">    240.14080362 </i>
    <i name="ewald">  -3312.56475667 </i>
    <i name="hartreedc">   -303.48768730 </i>
    <i name="XCdc">     13.31245237 </i>
    <i name="pawpsdc">   2786.82380169 </i>
    <i name="pawaedc">  -2669.83309205 </i>
    <i name="eentropy">     -0.00201492 </i>
    <i name="bandstr">    542.26054196 </i>
    <i name="atom">   2913.27683730 </i>
    <i name="e_fr_energy">    209.92688599 </i>
    <i name="e_wo_entrp">    209.92890091 </i>
    <i name="e_0_energy">    209.92789345 </i>
   </energy>
  </scstep>
  <scstep>
   <time name="dav">    3.91    3.92</time>
   <time name="total">    3.92    3.93</time>
   <energy>
    <i name="e_fr_energy">    -17.11458558 </i>
    <i name="e_wo_entrp">    -17.10704423 </i>
    <i name="e_0_energy">    -17.11081491 </i>
   </energy>
  </scstep>
  <scstep>
   <time name="dav">    3.85    3.86</time>
   <time name="total">    3.86    3.87</time>
   <energy>
    <i name="e_fr_energy">    -23.13719259 </i>
    <i name="e_wo_entrp">    -23.12672208 </i>
    <i name="e_0_energy">    -23.13195733 </i>
   </energy>
  </scstep>
  <scstep>
   <time name="dav">    3.72    3.74</time>
   <time name="total">    3.73    3.75</time>
   <energy>
    <i name="e_fr_energy">    -23.18274485 </i>
    <i name="e_wo_entrp">    -23.17222982 </i>
    <i name="e_0_energy">    -23.17748733 </i>
   </energy>
  </scstep>
  <scstep>
   <time name="dav">    3.76    3.78</time>
   <time name="total">    3.95    3.96</time>
   <energy>
    <i name="e_fr_energy">    -23.18323597 </i>
    <i name="e_wo_entrp">    -23.17272049 </i>
    <i name="e_0_energy">    -23.17797823 </i>
   </energy>
  </scstep>
  <scstep>
   <time name="dav">    3.68    3.69</time>
   <time name="total">    3.88    3.89</time>
   <energy>
    <i name="e_fr_energy">    -21.96333827 </i>
    <i name="e_wo_entrp">    -21.95091197 </i>
    <i name="e_0_energy">    -21.95712512 </i>
   </energy>
  </scstep>
  <scstep>
   <time name="dav">    3.72    3.73</time>
   <time name="total">    3.91    3.93</time>
   <energy>
    <i name="e_fr_energy">    -21.84038465 </i>
    <i name="e_wo_entrp">    -21.82760052 </i>
    <i name="e_0_energy">    -21.83399258 </i>
   </energy>
  </scstep>
  <scstep>
   <time name="dav">    3.69    3.70</time>
   <time name="total">    3.89    3.90</time>
   <energy>
    <i name="e_fr_energy">    -21.82966248 </i>
    <i name="e_wo_entrp">    -21.81706302 </i>
    <i name="e_0_energy">    -21.82336275 </i>
   </energy>
  </scstep>
  <scstep>
   <time name="dav">    3.75    3.77</time>
   <time name="total">    3.94    3.96</time>
   <energy>
    <i name="e_fr_energy">    -21.82886809 </i>
    <i name="e_wo_entrp">    -21.81623684 </i>
    <i name="e_0_energy">    -21.82255246 </i>
   </energy>
  </scstep>
  <scstep>
   <time name="dav">    2.59    2.60</time>
   <time name="total">    2.62    2.63</time>
   <energy>
    <i name="alphaZ">    240.14080362 </i>
    <i name="ewald">  -3312.56475667 </i>
    <i name="hartreedc">   -263.28086472 </i>
    <i name="XCdc">     12.02065825 </i>
    <i name="pawpsdc">   3609.55926948 </i>
    <i name="pawaedc">  -3503.99836505 </i>
    <i name="eentropy">     -0.01262659 </i>
    <i name="bandstr">    283.03015100 </i>
    <i name="atom">   2913.27683730 </i>
    <i name="e_fr_energy">    -21.82889338 </i>
    <i name="e_wo_entrp">    -21.81626679 </i>
    <i name="e_0_energy">    -21.82258009 </i>
   </energy>
  </scstep>
  <structure>
   <crystal>
    <varray name="basis" >
     <v>      -3.98609800       3.98609800       0.00000000 </v>
     <v>      -3.98609800       0.00000000       3.98609800 </v>
     <v>       3.98609800       0.00000000       0.00000000 </v>
    </varray>
    <i name="volume">     63.33502050 </i>
    <varray name="rec_basis" >
     <v>       0.00000000       0.25087191      -0.00000000 </v>
     <v>       0.00000000      -0.00000000       0.25087191 </v>
     <v>       0.25087191       0.25087191       0.25087191 </v>
    </varray>
   </crystal>
   <varray name="positions" >
    <v>       0.00000000       0.00000000       0.00000000 </v>
    <v>       0.50000000       0.50000000       0.00000000 </v>
    <v>       0.00000000       0.50000000       0.00000000 </v>
    <v>       0.50000000       0.00000000       0.00000000 </v>
   </varray>
  </structure>
  <varray name="forces" >
   <v>      -0.00000016      -0.00000048       0.00000183 </v>
   <v>       0.00000003       0.00000007      -0.00000067 </v>
   <v>       0.00000082      -0.00000225      -0.00000374 </v>
   <v>      -0.00000070       0.00000266       0.00000258 </v>
  </varray>
  <energy>
   <i name="e_fr_energy">    -21.82889338 </i>
   <i name="e_wo_entrp">    -21.81626679 </i>
   <i name="e_0_energy">    -21.82258009 </i>
  </energy>
  <time name="totalsc">   38.81   38.99</time>
  <eigenvalues>
   <array>
    <dimension dim="1">band</dimension>
    <dimension dim="2">kpoint</dimension>
    <dimension dim="3">spin</dimension>
    <field>eigene</field>
    <field>occ</field>
    <set>
     <set comment="spin 1">
      <set comment="kpoint 1">
       <r>    0.7904    1.0000 </r>
       <r>    3.8943    1.0000 </r>
       <r>    3.8946    1.0000 </r>
       <r>    3.8948    1.0000 </r>
       <r>    4.3105    1.0000 </r>
       <r>    4.3105    1.0000 </r>
       <r>    4.3105    1.0000 </r>
       <r>    6.9323    1.0000 </r>
       <r>    6.9323    1.0000 </r>
       <r>    6.9323    1.0000 </r>
       <r>    8.9230    1.0000 </r>
       <r>    8.9230    1.0000 </r>
       <r>   10.4237    0.4220 </r>
       <r>   10.4241    0.4176 </r>
       <r>   10.4244    0.4146 </r>
       <r>   10.8613    0.0000 </r>
       <r>   10.8618    0.0000 </r>
       <r>   10.8618    0.0000 </r>
       <r>   10.8622    0.0000 </r>
       <r>   10.8622    0.0000 </r>
       <r>   10.8627    0.0000 </r>
       <r>   12.3352    0.0000 </r>
       <r>   12.3352    0.0000 </r>
       <r>   12.3352    0.0000 </r>
       <r>   18.8356    0.0000 </r>
       <r>   18.8357    0.0000 </r>
       <r>   18.8359    0.0000 </r>
       <r>   21.7016    0.0000 </r>
      </set>
      <set comment="kpoint 2">
       <r>    0.9906    1.0000 </r>
       <r>    3.9652    1.0000 </r>
       <r>    4.0393    1.0000 </r>
       <r>    4.0394    1.0000 </r>
       <r>    4.3912    1.0000 </r>
       <r>    4.4327    1.0000 </r>
       <r>    4.4327    1.0000 </r>
       <r>    6.8055    1.0000 </r>
       <r>    7.0330    1.0000 </r>
       <r>    7.0330    1.0000 </r>
       <r>    8.7837    1.0000 </r>
       <r>    8.9742    1.0000 </r>
       <r>    9.8557    1.0000 </r>
       <r>    9.8557    1.0000 </r>
       <r>   10.2154    1.0000 </r>
       <r>   10.2155    1.0000 </r>
       <r>   10.3598    0.9463 </r>
       <r>   10.6150    0.0000 </r>
       <r>   10.6150    0.0000 </r>
       <r>   10.8623    0.0000 </r>
       <r>   10.8626    0.0000 </r>
       <r>   11.3391    0.0000 </r>
       <r>   13.4553    0.0000 </r>
       <r>   13.4553    0.0000 </r>
       <r>   18.4825    0.0000 </r>
       <r>   18.4826    0.0000 </r>
       <r>   20.1516    0.0000 </r>
       <r>   21.5096    0.0000 </r>
      </set>
      <set comment="kpoint 3">
       <r>    0.9906    1.0000 </r>
       <r>    3.9652    1.0000 </r>
       <r>    4.0391    1.0000 </r>
       <r>    4.0396    1.0000 </r>
       <r>    4.3912    1.0000 </r>
       <r>    4.4327    1.0000 </r>
       <r>    4.4327    1.0000 </r>
       <r>    6.8055    1.0000 </r>
       <r>    7.0330    1.0000 </r>
       <r>    7.0330    1.0000 </r>
       <r>    8.7837    1.0000 </r>
       <r>    8.9742    1.0000 </r>
       <r>    9.8557    1.0000 </r>
       <r>    9.8557    1.0000 </r>
       <r>   10.2151    1.0000 </r>
       <r>   10.2158    1.0000 </r>
       <r>   10.3598    0.9463 </r>
       <r>   10.6150    0.0000 </r>
       <r>   10.6150    0.0000 </r>
       <r>   10.8618    0.0000 </r>
       <r>   10.8632    0.0000 </r>
       <r>   11.3391    0.0000 </r>
       <r>   13.4553    0.0000 </r>
       <r>   13.4553    0.0000 </r>
       <r>   18.4823    0.0000 </r>
       <r>   18.4828    0.0000 </r>
       <r>   20.1516    0.0000 </r>
       <r>   21.5096    0.0000 </r>
      </set>
      <set comment="kpoint 4">
       <r>    0.9906    1.0000 </r>
       <r>    3.9652    1.0000 </r>
       <r>    4.0392    1.0000 </r>
       <r>    4.0394    1.0000 </r>
       <r>    4.3913    1.0000 </r>
       <r>    4.4327    1.0000 </r>
       <r>    4.4327    1.0000 </r>
       <r>    6.8055    1.0000 </r>
       <r>    7.0330    1.0000 </r>
       <r>    7.0330    1.0000 </r>
       <r>    8.7837    1.0000 </r>
       <r>    8.9742    1.0000 </r>
       <r>    9.8557    1.0000 </r>
       <r>    9.8557    1.0000 </r>
       <r>   10.2153    1.0000 </r>
       <r>   10.2156    1.0000 </r>
       <r>   10.3598    0.9463 </r>
       <r>   10.6150    0.0000 </r>
       <r>   10.6150    0.0000 </r>
       <r>   10.8622    0.0000 </r>
       <r>   10.8627    0.0000 </r>
       <r>   11.3391    0.0000 </r>
       <r>   13.4553    0.0000 </r>
       <r>   13.4553    0.0000 </r>
       <r>   18.4824    0.0000 </r>
       <r>   18.4826    0.0000 </r>
       <r>   20.1516    0.0000 </r>
       <r>   21.5097    0.0000 </r>
      </set>
      <set comment="kpoint 5">
       <r>    1.5721    1.0000 </r>
       <r>    4.1095    1.0000 </r>
       <r>    4.4379    1.0000 </r>
       <r>    4.4380    1.0000 </r>
       <r>    4.6273    1.0000 </r>
       <r>    4.7974    1.0000 </r>
       <r>    4.7974    1.0000 </r>
       <r>    6.4606    1.0000 </r>
       <r>    7.3316    1.0000 </r>
       <r>    7.3316    1.0000 </r>
       <r>    8.4092    1.0000 </r>
       <r>    8.4968    1.0000 </r>
       <r>    8.4968    1.0000 </r>
       <r>    9.1222    1.0000 </r>
       <r>    9.5576    1.0000 </r>
       <r>    9.6486    1.0000 </r>
       <r>    9.6488    1.0000 </r>
       <r>    9.9936    1.0000 </r>
       <r>    9.9936    1.0000 </r>
       <r>   10.1806    1.0000 </r>
       <r>   10.8634    0.0000 </r>
       <r>   10.8637    0.0000 </r>
       <r>   15.1414    0.0000 </r>
       <r>   15.1414    0.0000 </r>
       <r>   17.8566    0.0000 </r>
       <r>   17.8567    0.0000 </r>
       <r>   20.9095    0.0000 </r>
       <r>   20.9095    0.0000 </r>
      </set>
      <set comment="kpoint 6">
       <r>    1.5721    1.0000 </r>
       <r>    4.1095    1.0000 </r>
       <r>    4.4377    1.0000 </r>
       <r>    4.4383    1.0000 </r>
       <r>    4.6273    1.0000 </r>
       <r>    4.7974    1.0000 </r>
       <r>    4.7974    1.0000 </r>
       <r>    6.4606    1.0000 </r>
       <r>    7.3316    1.0000 </r>
       <r>    7.3316    1.0000 </r>
       <r>    8.4092    1.0000 </r>
       <r>    8.4968    1.0000 </r>
       <r>    8.4968    1.0000 </r>
       <r>    9.1222    1.0000 </r>
       <r>    9.5576    1.0000 </r>
       <r>    9.6484    1.0000 </r>
       <r>    9.6491    1.0000 </r>
       <r>    9.9936    1.0000 </r>
       <r>    9.9936    1.0000 </r>
       <r>   10.1806    1.0000 </r>
       <r>   10.8628    0.0000 </r>
       <r>   10.8642    0.0000 </r>
       <r>   15.1414    0.0000 </r>
       <r>   15.1414    0.0000 </r>
       <r>   17.8563    0.0000 </r>
       <r>   17.8570    0.0000 </r>
       <r>   20.9095    0.0000 </r>
       <r>   20.9095    0.0000 </r>
      </set>
      <set comment="kpoint 7">
       <r>    1.5721    1.0000 </r>
       <r>    4.1095    1.0000 </r>
       <r>    4.4379    1.0000 </r>
       <r>    4.4381    1.0000 </r>
       <r>    4.6273    1.0000 </r>
       <r>    4.7974    1.0000 </r>
       <r>    4.7974    1.0000 </r>
       <r>    6.4606    1.0000 </r>
       <r>    7.3316    1.0000 </r>
       <r>    7.3316    1.0000 </r>
       <r>    8.4092    1.0000 </r>
       <r>    8.4968    1.0000 </r>
       <r>    8.4968    1.0000 </r>
       <r>    9.1222    1.0000 </r>
       <r>    9.5576    1.0000 </r>
       <r>    9.6486    1.0000 </r>
       <r>    9.6488    1.0000 </r>
       <r>    9.9936    1.0000 </r>
       <r>    9.9936    1.0000 </r>
       <r>   10.1806    1.0000 </r>
       <r>   10.8633    0.0000 </r>
       <r>   10.8638    0.0000 </r>
       <r>   15.1414    0.0000 </r>
       <r>   15.1414    0.0000 </r>
       <r>   17.8565    0.0000 </r>
       <r>   17.8568    0.0000 </r>
       <r>   20.9095    0.0000 </r>
       <r>   20.9095    0.0000 </r>
      </set>
      <set comment="kpoint 8">
       <r>    2.4601    1.0000 </r>
       <r>    4.0618    1.0000 </r>
       <r>    4.9484    1.0000 </r>
       <r>    4.9486    1.0000 </r>
       <r>    4.9988    1.0000 </r>
       <r>    5.3990    1.0000 </r>
       <r>    5.3990    1.0000 </r>
       <r>    5.9835    1.0000 </r>
       <r>    7.2684    1.0000 </r>
       <r>    7.2684    1.0000 </r>
       <r>    7.8166    1.0000 </r>
       <r>    7.8166    1.0000 </r>
       <r>    7.9410    1.0000 </r>
       <r>    8.1461    1.0000 </r>
       <r>    8.9537    1.0000 </r>
       <r>    8.9539    1.0000 </r>
       <r>    9.2202    1.0000 </r>
       <r>    9.2202    1.0000 </r>
       <r>    9.3501    1.0000 </r>
       <r>    9.9218    1.0000 </r>
       <r>   10.8645    0.0000 </r>
       <r>   10.8648    0.0000 </r>
       <r>   16.8659    0.0000 </r>
       <r>   16.8659    0.0000 </r>
       <r>   17.4122    0.0000 </r>
       <r>   17.4124    0.0000 </r>
       <r>   19.8826    0.0000 </r>
       <r>   19.8826    0.0000 </r>
      </set>
      <set comment="kpoint 9">
       <r>    2.4601    1.0000 </r>
       <r>    4.0618    1.0000 </r>
       <r>    4.9481    1.0000 </r>
       <r>    4.9488    1.0000 </r>
       <r>    4.9988    1.0000 </r>
       <r>    5.3990    1.0000 </r>
       <r>    5.3990    1.0000 </r>
       <r>    5.9835    1.0000 </r>
       <r>    7.2684    1.0000 </r>
       <r>    7.2684    1.0000 </r>
       <r>    7.8166    1.0000 </r>
       <r>    7.8166    1.0000 </r>
       <r>    7.9410    1.0000 </r>
       <r>    8.1461    1.0000 </r>
       <r>    8.9533    1.0000 </r>
       <r>    8.9542    1.0000 </r>
       <r>    9.2202    1.0000 </r>
       <r>    9.2202    1.0000 </r>
       <r>    9.3501    1.0000 </r>
       <r>    9.9218    1.0000 </r>
       <r>   10.8640    0.0000 </r>
       <r>   10.8653    0.0000 </r>
       <r>   16.8659    0.0000 </r>
       <r>   16.8659    0.0000 </r>
       <r>   17.4120    0.0000 </r>
       <r>   17.4127    0.0000 </r>
       <r>   19.8826    0.0000 </r>
       <r>   19.8826    0.0000 </r>
      </set>
      <set comment="kpoint 10">
       <r>    2.4601    1.0000 </r>
       <r>    4.0618    1.0000 </r>
       <r>    4.9483    1.0000 </r>
       <r>    4.9486    1.0000 </r>
       <r>    4.9988    1.0000 </r>
       <r>    5.3990    1.0000 </r>
       <r>    5.3990    1.0000 </r>
       <r>    5.9835    1.0000 </r>
       <r>    7.2684    1.0000 </r>
       <r>    7.2684    1.0000 </r>
       <r>    7.8166    1.0000 </r>
       <r>    7.8166    1.0000 </r>
       <r>    7.9410    1.0000 </r>
       <r>    8.1461    1.0000 </r>
       <r>    8.9536    1.0000 </r>
       <r>    8.9539    1.0000 </r>
       <r>    9.2202    1.0000 </r>
       <r>    9.2202    1.0000 </r>
       <r>    9.3501    1.0000 </r>
       <r>    9.9218    1.0000 </r>
       <r>   10.8644    0.0000 </r>
       <r>   10.8649    0.0000 </r>
       <r>   16.8659    0.0000 </r>
       <r>   16.8659    0.0000 </r>
       <r>   17.4122    0.0000 </r>
       <r>   17.4124    0.0000 </r>
       <r>   19.8826    0.0000 </r>
       <r>   19.8826    0.0000 </r>
      </set>
      <set comment="kpoint 11">
       <r>    3.4435    1.0000 </r>
       <r>    3.4436    1.0000 </r>
       <r>    5.2202    1.0000 </r>
       <r>    5.2204    1.0000 </r>
       <r>    5.4696    1.0000 </r>
       <r>    5.4699    1.0000 </r>
       <r>    6.2276    1.0000 </r>
       <r>    6.2276    1.0000 </r>
       <r>    6.2278    1.0000 </r>
       <r>    6.2278    1.0000 </r>
       <r>    7.6764    1.0000 </r>
       <r>    7.6766    1.0000 </r>
       <r>    8.4626    1.0000 </r>
       <r>    8.4626    1.0000 </r>
       <r>    8.4628    1.0000 </r>
       <r>    8.4628    1.0000 </r>
       <r>    8.6016    1.0000 </r>
       <r>    8.6018    1.0000 </r>
       <r>    9.6294    1.0000 </r>
       <r>    9.6297    1.0000 </r>
       <r>   10.8649    0.0000 </r>
       <r>   10.8653    0.0000 </r>
       <r>   17.2628    0.0000 </r>
       <r>   17.2630    0.0000 </r>
       <r>   18.4918    0.0000 </r>
       <r>   18.4918    0.0000 </r>
       <r>   18.4918    0.0000 </r>
       <r>   18.4919    0.0000 </r>
      </set>
      <set comment="kpoint 12">
       <r>    3.4433    1.0000 </r>
       <r>    3.4438    1.0000 </r>
       <r>    5.2199    1.0000 </r>
       <r>    5.2208    1.0000 </r>
       <r>    5.4692    1.0000 </r>
       <r>    5.4703    1.0000 </r>
       <r>    6.2273    1.0000 </r>
       <r>    6.2273    1.0000 </r>
       <r>    6.2281    1.0000 </r>
       <r>    6.2281    1.0000 </r>
       <r>    7.6760    1.0000 </r>
       <r>    7.6769    1.0000 </r>
       <r>    8.4622    1.0000 </r>
       <r>    8.4622    1.0000 </r>
       <r>    8.4632    1.0000 </r>
       <r>    8.4633    1.0000 </r>
       <r>    8.6012    1.0000 </r>
       <r>    8.6022    1.0000 </r>
       <r>    9.6289    1.0000 </r>
       <r>    9.6302    1.0000 </r>
       <r>   10.8644    0.0000 </r>
       <r>   10.8658    0.0000 </r>
       <r>   17.2625    0.0000 </r>
       <r>   17.2633    0.0000 </r>
       <r>   18.4917    0.0000 </r>
       <r>   18.4917    0.0000 </r>
       <r>   18.4919    0.0000 </r>
       <r>   18.4920    0.0000 </r>
      </set>
      <set comment="kpoint 13">
       <r>    3.4435    1.0000 </r>
       <r>    3.4437    1.0000 </r>
       <r>    5.2202    1.0000 </r>
       <r>    5.2205    1.0000 </r>
       <r>    5.4696    1.0000 </r>
       <r>    5.4700    1.0000 </r>
       <r>    6.2276    1.0000 </r>
       <r>    6.2276    1.0000 </r>
       <r>    6.2278    1.0000 </r>
       <r>    6.2278    1.0000 </r>
       <r>    7.6763    1.0000 </r>
       <r>    7.6766    1.0000 </r>
       <r>    8.4625    1.0000 </r>
       <r>    8.4625    1.0000 </r>
       <r>    8.4629    1.0000 </r>
       <r>    8.4629    1.0000 </r>
       <r>    8.6015    1.0000 </r>
       <r>    8.6019    1.0000 </r>
       <r>    9.6293    1.0000 </r>
       <r>    9.6298    1.0000 </r>
       <r>   10.8649    0.0000 </r>
       <r>   10.8653    0.0000 </r>
       <r>   17.2627    0.0000 </r>
       <r>   17.2630    0.0000 </r>
       <r>   18.4918    0.0000 </r>
       <r>   18.4918    0.0000 </r>
       <r>   18.4919    0.0000 </r>
       <r>   18.4919    0.0000 </r>
      </set>
      <set comment="kpoint 14">
       <r>    1.1856    1.0000 </r>
       <r>    4.1129    1.0000 </r>
       <r>    4.1130    1.0000 </r>
       <r>    4.1489    1.0000 </r>
       <r>    4.5100    1.0000 </r>
       <r>    4.5100    1.0000 </r>
       <r>    4.5762    1.0000 </r>
       <r>    6.7498    1.0000 </r>
       <r>    7.0713    1.0000 </r>
       <r>    7.1124    1.0000 </r>
       <r>    8.7490    1.0000 </r>
       <r>    8.9489    1.0000 </r>
       <r>    9.3848    1.0000 </r>
       <r>    9.4331    1.0000 </r>
       <r>    9.4335    1.0000 </r>
       <r>   10.0392    1.0000 </r>
       <r>   10.2199    1.0000 </r>
       <r>   10.2200    1.0000 </r>
       <r>   10.6142    0.0000 </r>
       <r>   10.6143    0.0000 </r>
       <r>   10.7049    0.0000 </r>
       <r>   12.5462    0.0000 </r>
       <r>   12.5464    0.0000 </r>
       <r>   14.2015    0.0000 </r>
       <r>   18.0126    0.0000 </r>
       <r>   19.6816    0.0000 </r>
       <r>   19.6816    0.0000 </r>
       <r>   21.0387    0.0000 </r>
      </set>
      <set comment="kpoint 15">
       <r>    1.1856    1.0000 </r>
       <r>    4.1129    1.0000 </r>
       <r>    4.1130    1.0000 </r>
       <r>    4.1489    1.0000 </r>
       <r>    4.5100    1.0000 </r>
       <r>    4.5100    1.0000 </r>
       <r>    4.5762    1.0000 </r>
       <r>    6.7498    1.0000 </r>
       <r>    7.0713    1.0000 </r>
       <r>    7.1124    1.0000 </r>
       <r>    8.7490    1.0000 </r>
       <r>    8.9489    1.0000 </r>
       <r>    9.3848    1.0000 </r>
       <r>    9.4332    1.0000 </r>
       <r>    9.4334    1.0000 </r>
       <r>   10.0392    1.0000 </r>
       <r>   10.2199    1.0000 </r>
       <r>   10.2200    1.0000 </r>
       <r>   10.6142    0.0000 </r>
       <r>   10.6143    0.0000 </r>
       <r>   10.7049    0.0000 </r>
       <r>   12.5463    0.0000 </r>
       <r>   12.5464    0.0000 </r>
       <r>   14.2015    0.0000 </r>
       <r>   18.0126    0.0000 </r>
       <r>   19.6816    0.0000 </r>
       <r>   19.6816    0.0000 </r>
       <r>   21.0387    0.0000 </r>
      </set>
      <set comment="kpoint 16">
       <r>    1.1856    1.0000 </r>
       <r>    4.1127    1.0000 </r>
       <r>    4.1131    1.0000 </r>
       <r>    4.1489    1.0000 </r>
       <r>    4.5100    1.0000 </r>
       <r>    4.5100    1.0000 </r>
       <r>    4.5762    1.0000 </r>
       <r>    6.7498    1.0000 </r>
       <r>    7.0713    1.0000 </r>
       <r>    7.1124    1.0000 </r>
       <r>    8.7490    1.0000 </r>
       <r>    8.9489    1.0000 </r>
       <r>    9.3848    1.0000 </r>
       <r>    9.4328    1.0000 </r>
       <r>    9.4338    1.0000 </r>
       <r>   10.0392    1.0000 </r>
       <r>   10.2197    1.0000 </r>
       <r>   10.2202    1.0000 </r>
       <r>   10.6142    0.0000 </r>
       <r>   10.6143    0.0000 </r>
       <r>   10.7049    0.0000 </r>
       <r>   12.5461    0.0000 </r>
       <r>   12.5466    0.0000 </r>
       <r>   14.2015    0.0000 </r>
       <r>   18.0126    0.0000 </r>
       <r>   19.6816    0.0000 </r>
       <r>   19.6817    0.0000 </r>
       <r>   21.0387    0.0000 </r>
      </set>
      <set comment="kpoint 17">
       <r>    1.1856    1.0000 </r>
       <r>    4.1129    1.0000 </r>
       <r>    4.1130    1.0000 </r>
       <r>    4.1489    1.0000 </r>
       <r>    4.5100    1.0000 </r>
       <r>    4.5100    1.0000 </r>
       <r>    4.5762    1.0000 </r>
       <r>    6.7498    1.0000 </r>
       <r>    7.0713    1.0000 </r>
       <r>    7.1124    1.0000 </r>
       <r>    8.7490    1.0000 </r>
       <r>    8.9489    1.0000 </r>
       <r>    9.3848    1.0000 </r>
       <r>    9.4331    1.0000 </r>
       <r>    9.4335    1.0000 </r>
       <r>   10.0392    1.0000 </r>
       <r>   10.2199    1.0000 </r>
       <r>   10.2200    1.0000 </r>
       <r>   10.6142    0.0000 </r>
       <r>   10.6143    0.0000 </r>
       <r>   10.7049    0.0000 </r>
       <r>   12.5462    0.0000 </r>
       <r>   12.5464    0.0000 </r>
       <r>   14.2015    0.0000 </r>
       <r>   18.0126    0.0000 </r>
       <r>   19.6816    0.0000 </r>
       <r>   19.6817    0.0000 </r>
       <r>   21.0387    0.0000 </r>
      </set>
      <set comment="kpoint 18">
       <r>    1.1856    1.0000 </r>
       <r>    4.1127    1.0000 </r>
       <r>    4.1131    1.0000 </r>
       <r>    4.1489    1.0000 </r>
       <r>    4.5100    1.0000 </r>
       <r>    4.5100    1.0000 </r>
       <r>    4.5762    1.0000 </r>
       <r>    6.7498    1.0000 </r>
       <r>    7.0713    1.0000 </r>
       <r>    7.1124    1.0000 </r>
       <r>    8.7490    1.0000 </r>
       <r>    8.9489    1.0000 </r>
       <r>    9.3848    1.0000 </r>
       <r>    9.4328    1.0000 </r>
       <r>    9.4338    1.0000 </r>
       <r>   10.0392    1.0000 </r>
       <r>   10.2197    1.0000 </r>
       <r>   10.2202    1.0000 </r>
       <r>   10.6142    0.0000 </r>
       <r>   10.6143    0.0000 </r>
       <r>   10.7049    0.0000 </r>
       <r>   12.5461    0.0000 </r>
       <r>   12.5466    0.0000 </r>
       <r>   14.2015    0.0000 </r>
       <r>   18.0126    0.0000 </r>
       <r>   19.6816    0.0000 </r>
       <r>   19.6817    0.0000 </r>
       <r>   21.0387    0.0000 </r>
      </set>
      <set comment="kpoint 19">
       <r>    1.1856    1.0000 </r>
       <r>    4.1129    1.0000 </r>
       <r>    4.1130    1.0000 </r>
       <r>    4.1489    1.0000 </r>
       <r>    4.5100    1.0000 </r>
       <r>    4.5100    1.0000 </r>
       <r>    4.5762    1.0000 </r>
       <r>    6.7498    1.0000 </r>
       <r>    7.0713    1.0000 </r>
       <r>    7.1124    1.0000 </r>
       <r>    8.7490    1.0000 </r>
       <r>    8.9489    1.0000 </r>
       <r>    9.3848    1.0000 </r>
       <r>    9.4332    1.0000 </r>
       <r>    9.4334    1.0000 </r>
       <r>   10.0392    1.0000 </r>
       <r>   10.2199    1.0000 </r>
       <r>   10.2200    1.0000 </r>
       <r>   10.6142    0.0000 </r>
       <r>   10.6143    0.0000 </r>
       <r>   10.7049    0.0000 </r>
       <r>   12.5463    0.0000 </r>
       <r>   12.5464    0.0000 </r>
       <r>   14.2015    0.0000 </r>
       <r>   18.0126    0.0000 </r>
       <r>   19.6816    0.0000 </r>
       <r>   19.6817    0.0000 </r>
       <r>   21.0387    0.0000 </r>
      </set>
      <set comment="kpoint 20">
       <r>    1.7518    1.0000 </r>
       <r>    4.2650    1.0000 </r>
       <r>    4.4708    1.0000 </r>
       <r>    4.5221    1.0000 </r>
       <r>    4.7356    1.0000 </r>
       <r>    4.8638    1.0000 </r>
       <r>    4.9741    1.0000 </r>
       <r>    6.4597    1.0000 </r>
       <r>    7.3302    1.0000 </r>
       <r>    7.3378    1.0000 </r>
       <r>    8.1232    1.0000 </r>
       <r>    8.3283    1.0000 </r>
       <r>    8.4565    1.0000 </r>
       <r>    8.5159    1.0000 </r>
       <r>    9.1124    1.0000 </r>
       <r>    9.5455    1.0000 </r>
       <r>    9.7093    1.0000 </r>
       <r>    9.9685    1.0000 </r>
       <r>    9.9908    1.0000 </r>
       <r>   10.6120    0.0000 </r>
       <r>   10.6213    0.0000 </r>
       <r>   11.1703    0.0000 </r>
       <r>   14.0140    0.0000 </r>
       <r>   15.6808    0.0000 </r>
       <r>   17.1818    0.0000 </r>
       <r>   18.9779    0.0000 </r>
       <r>   20.5301    0.0000 </r>
       <r>   21.3480    0.0000 </r>
      </set>
      <set comment="kpoint 21">
       <r>    1.7518    1.0000 </r>
       <r>    4.2650    1.0000 </r>
       <r>    4.4707    1.0000 </r>
       <r>    4.5221    1.0000 </r>
       <r>    4.7356    1.0000 </r>
       <r>    4.8638    1.0000 </r>
       <r>    4.9741    1.0000 </r>
       <r>    6.4597    1.0000 </r>
       <r>    7.3301    1.0000 </r>
       <r>    7.3379    1.0000 </r>
       <r>    8.1232    1.0000 </r>
       <r>    8.3283    1.0000 </r>
       <r>    8.4565    1.0000 </r>
       <r>    8.5159    1.0000 </r>
       <r>    9.1124    1.0000 </r>
       <r>    9.5455    1.0000 </r>
       <r>    9.7093    1.0000 </r>
       <r>    9.9685    1.0000 </r>
       <r>    9.9908    1.0000 </r>
       <r>   10.6119    0.0000 </r>
       <r>   10.6214    0.0000 </r>
       <r>   11.1703    0.0000 </r>
       <r>   14.0140    0.0000 </r>
       <r>   15.6808    0.0000 </r>
       <r>   17.1818    0.0000 </r>
       <r>   18.9779    0.0000 </r>
       <r>   20.5301    0.0000 </r>
       <r>   21.3481    0.0000 </r>
      </set>
      <set comment="kpoint 22">
       <r>    1.7518    1.0000 </r>
       <r>    4.2650    1.0000 </r>
       <r>    4.4707    1.0000 </r>
       <r>    4.5221    1.0000 </r>
       <r>    4.7356    1.0000 </r>
       <r>    4.8638    1.0000 </r>
       <r>    4.9741    1.0000 </r>
       <r>    6.4597    1.0000 </r>
       <r>    7.3301    1.0000 </r>
       <r>    7.3378    1.0000 </r>
       <r>    8.1232    1.0000 </r>
       <r>    8.3283    1.0000 </r>
       <r>    8.4565    1.0000 </r>
       <r>    8.5159    1.0000 </r>
       <r>    9.1124    1.0000 </r>
       <r>    9.5455    1.0000 </r>
       <r>    9.7093    1.0000 </r>
       <r>    9.9685    1.0000 </r>
       <r>    9.9908    1.0000 </r>
       <r>   10.6120    0.0000 </r>
       <r>   10.6213    0.0000 </r>
       <r>   11.1703    0.0000 </r>
       <r>   14.0140    0.0000 </r>
       <r>   15.6808    0.0000 </r>
       <r>   17.1818    0.0000 </r>
       <r>   18.9779    0.0000 </r>
       <r>   20.5301    0.0000 </r>
       <r>   21.3481    0.0000 </r>
      </set>
      <set comment="kpoint 23">
       <r>    1.7518    1.0000 </r>
       <r>    4.2650    1.0000 </r>
       <r>    4.4707    1.0000 </r>
       <r>    4.5221    1.0000 </r>
       <r>    4.7356    1.0000 </r>
       <r>    4.8638    1.0000 </r>
       <r>    4.9741    1.0000 </r>
       <r>    6.4597    1.0000 </r>
       <r>    7.3302    1.0000 </r>
       <r>    7.3378    1.0000 </r>
       <r>    8.1232    1.0000 </r>
       <r>    8.3283    1.0000 </r>
       <r>    8.4565    1.0000 </r>
       <r>    8.5159    1.0000 </r>
       <r>    9.1124    1.0000 </r>
       <r>    9.5455    1.0000 </r>
       <r>    9.7093    1.0000 </r>
       <r>    9.9685    1.0000 </r>
       <r>    9.9908    1.0000 </r>
       <r>   10.6119    0.0000 </r>
       <r>   10.6214    0.0000 </r>
       <r>   11.1703    0.0000 </r>
       <r>   14.0140    0.0000 </r>
       <r>   15.6808    0.0000 </r>
       <r>   17.1818    0.0000 </r>
       <r>   18.9779    0.0000 </r>
       <r>   20.5301    0.0000 </r>
       <r>   21.3480    0.0000 </r>
      </set>
      <set comment="kpoint 24">
       <r>    1.7518    1.0000 </r>
       <r>    4.2650    1.0000 </r>
       <r>    4.4708    1.0000 </r>
       <r>    4.5221    1.0000 </r>
       <r>    4.7356    1.0000 </r>
       <r>    4.8638    1.0000 </r>
       <r>    4.9741    1.0000 </r>
       <r>    6.4597    1.0000 </r>
       <r>    7.3302    1.0000 </r>
       <r>    7.3379    1.0000 </r>
       <r>    8.1232    1.0000 </r>
       <r>    8.3283    1.0000 </r>
       <r>    8.4565    1.0000 </r>
       <r>    8.5159    1.0000 </r>
       <r>    9.1124    1.0000 </r>
       <r>    9.5455    1.0000 </r>
       <r>    9.7093    1.0000 </r>
       <r>    9.9685    1.0000 </r>
       <r>    9.9908    1.0000 </r>
       <r>   10.6120    0.0000 </r>
       <r>   10.6213    0.0000 </r>
       <r>   11.1703    0.0000 </r>
       <r>   14.0140    0.0000 </r>
       <r>   15.6808    0.0000 </r>
       <r>   17.1818    0.0000 </r>
       <r>   18.9780    0.0000 </r>
       <r>   20.5301    0.0000 </r>
       <r>   21.3480    0.0000 </r>
      </set>
      <set comment="kpoint 25">
       <r>    1.7518    1.0000 </r>
       <r>    4.2650    1.0000 </r>
       <r>    4.4707    1.0000 </r>
       <r>    4.5221    1.0000 </r>
       <r>    4.7356    1.0000 </r>
       <r>    4.8638    1.0000 </r>
       <r>    4.9741    1.0000 </r>
       <r>    6.4597    1.0000 </r>
       <r>    7.3301    1.0000 </r>
       <r>    7.3378    1.0000 </r>
       <r>    8.1232    1.0000 </r>
       <r>    8.3283    1.0000 </r>
       <r>    8.4565    1.0000 </r>
       <r>    8.5159    1.0000 </r>
       <r>    9.1124    1.0000 </r>
       <r>    9.5455    1.0000 </r>
       <r>    9.7093    1.0000 </r>
       <r>    9.9685    1.0000 </r>
       <r>    9.9908    1.0000 </r>
       <r>   10.6120    0.0000 </r>
       <r>   10.6213    0.0000 </r>
       <r>   11.1703    0.0000 </r>
       <r>   14.0140    0.0000 </r>
       <r>   15.6808    0.0000 </r>
       <r>   17.1818    0.0000 </r>
       <r>   18.9779    0.0000 </r>
       <r>   20.5301    0.0000 </r>
       <r>   21.3481    0.0000 </r>
      </set>
      <set comment="kpoint 26">
       <r>    1.7518    1.0000 </r>
       <r>    4.2650    1.0000 </r>
       <r>    4.4708    1.0000 </r>
       <r>    4.5221    1.0000 </r>
       <r>    4.7356    1.0000 </r>
       <r>    4.8638    1.0000 </r>
       <r>    4.9741    1.0000 </r>
       <r>    6.4597    1.0000 </r>
       <r>    7.3302    1.0000 </r>
       <r>    7.3379    1.0000 </r>
       <r>    8.1232    1.0000 </r>
       <r>    8.3283    1.0000 </r>
       <r>    8.4565    1.0000 </r>
       <r>    8.5159    1.0000 </r>
       <r>    9.1124    1.0000 </r>
       <r>    9.5455    1.0000 </r>
       <r>    9.7093    1.0000 </r>
       <r>    9.9685    1.0000 </r>
       <r>    9.9908    1.0000 </r>
       <r>   10.6119    0.0000 </r>
       <r>   10.6214    0.0000 </r>
       <r>   11.1703    0.0000 </r>
       <r>   14.0140    0.0000 </r>
       <r>   15.6808    0.0000 </r>
       <r>   17.1818    0.0000 </r>
       <r>   18.9780    0.0000 </r>
       <r>   20.5301    0.0000 </r>
       <r>   21.3480    0.0000 </r>
      </set>
      <set comment="kpoint 27">
       <r>    1.7518    1.0000 </r>
       <r>    4.2650    1.0000 </r>
       <r>    4.4708    1.0000 </r>
       <r>    4.5221    1.0000 </r>
       <r>    4.7356    1.0000 </r>
       <r>    4.8638    1.0000 </r>
       <r>    4.9741    1.0000 </r>
       <r>    6.4597    1.0000 </r>
       <r>    7.3302    1.0000 </r>
       <r>    7.3378    1.0000 </r>
       <r>    8.1232    1.0000 </r>
       <r>    8.3283    1.0000 </r>
       <r>    8.4565    1.0000 </r>
       <r>    8.5159    1.0000 </r>
       <r>    9.1124    1.0000 </r>
       <r>    9.5455    1.0000 </r>
       <r>    9.7093    1.0000 </r>
       <r>    9.9685    1.0000 </r>
       <r>    9.9908    1.0000 </r>
       <r>   10.6120    0.0000 </r>
       <r>   10.6213    0.0000 </r>
       <r>   11.1703    0.0000 </r>
       <r>   14.0140    0.0000 </r>
       <r>   15.6808    0.0000 </r>
       <r>   17.1818    0.0000 </r>
       <r>   18.9779    0.0000 </r>
       <r>   20.5301    0.0000 </r>
       <r>   21.3480    0.0000 </r>
      </set>
      <set comment="kpoint 28">
       <r>    1.7518    1.0000 </r>
       <r>    4.2650    1.0000 </r>
       <r>    4.4707    1.0000 </r>
       <r>    4.5221    1.0000 </r>
       <r>    4.7356    1.0000 </r>
       <r>    4.8638    1.0000 </r>
       <r>    4.9741    1.0000 </r>
       <r>    6.4597    1.0000 </r>
       <r>    7.3301    1.0000 </r>
       <r>    7.3379    1.0000 </r>
       <r>    8.1232    1.0000 </r>
       <r>    8.3283    1.0000 </r>
       <r>    8.4565    1.0000 </r>
       <r>    8.5159    1.0000 </r>
       <r>    9.1124    1.0000 </r>
       <r>    9.5455    1.0000 </r>
       <r>    9.7093    1.0000 </r>
       <r>    9.9685    1.0000 </r>
       <r>    9.9908    1.0000 </r>
       <r>   10.6120    0.0000 </r>
       <r>   10.6213    0.0000 </r>
       <r>   11.1703    0.0000 </r>
       <r>   14.0140    0.0000 </r>
       <r>   15.6808    0.0000 </r>
       <r>   17.1818    0.0000 </r>
       <r>   18.9779    0.0000 </r>
       <r>   20.5301    0.0000 </r>
       <r>   21.3480    0.0000 </r>
      </set>
      <set comment="kpoint 29">
       <r>    1.7518    1.0000 </r>
       <r>    4.2650    1.0000 </r>
       <r>    4.4708    1.0000 </r>
       <r>    4.5221    1.0000 </r>
       <r>    4.7356    1.0000 </r>
       <r>    4.8638    1.0000 </r>
       <r>    4.9741    1.0000 </r>
       <r>    6.4597    1.0000 </r>
       <r>    7.3302    1.0000 </r>
       <r>    7.3378    1.0000 </r>
       <r>    8.1232    1.0000 </r>
       <r>    8.3283    1.0000 </r>
       <r>    8.4565    1.0000 </r>
       <r>    8.5159    1.0000 </r>
       <r>    9.1124    1.0000 </r>
       <r>    9.5455    1.0000 </r>
       <r>    9.7093    1.0000 </r>
       <r>    9.9685    1.0000 </r>
       <r>    9.9908    1.0000 </r>
       <r>   10.6120    0.0000 </r>
       <r>   10.6213    0.0000 </r>
       <r>   11.1703    0.0000 </r>
       <r>   14.0140    0.0000 </r>
       <r>   15.6808    0.0000 </r>
       <r>   17.1818    0.0000 </r>
       <r>   18.9779    0.0000 </r>
       <r>   20.5301    0.0000 </r>
       <r>   21.3480    0.0000 </r>
      </set>
      <set comment="kpoint 30">
       <r>    1.7518    1.0000 </r>
       <r>    4.2650    1.0000 </r>
       <r>    4.4708    1.0000 </r>
       <r>    4.5221    1.0000 </r>
       <r>    4.7356    1.0000 </r>
       <r>    4.8638    1.0000 </r>
       <r>    4.9741    1.0000 </r>
       <r>    6.4597    1.0000 </r>
       <r>    7.3302    1.0000 </r>
       <r>    7.3378    1.0000 </r>
       <r>    8.1232    1.0000 </r>
       <r>    8.3283    1.0000 </r>
       <r>    8.4565    1.0000 </r>
       <r>    8.5159    1.0000 </r>
       <r>    9.1124    1.0000 </r>
       <r>    9.5455    1.0000 </r>
       <r>    9.7093    1.0000 </r>
       <r>    9.9685    1.0000 </r>
       <r>    9.9908    1.0000 </r>
       <r>   10.6120    0.0000 </r>
       <r>   10.6213    0.0000 </r>
       <r>   11.1703    0.0000 </r>
       <r>   14.0140    0.0000 </r>
       <r>   15.6808    0.0000 </r>
       <r>   17.1818    0.0000 </r>
       <r>   18.9779    0.0000 </r>
       <r>   20.5301    0.0000 </r>
       <r>   21.3480    0.0000 </r>
      </set>
      <set comment="kpoint 31">
       <r>    1.7518    1.0000 </r>
       <r>    4.2650    1.0000 </r>
       <r>    4.4707    1.0000 </r>
       <r>    4.5221    1.0000 </r>
       <r>    4.7356    1.0000 </r>
       <r>    4.8638    1.0000 </r>
       <r>    4.9741    1.0000 </r>
       <r>    6.4597    1.0000 </r>
       <r>    7.3302    1.0000 </r>
       <r>    7.3378    1.0000 </r>
       <r>    8.1232    1.0000 </r>
       <r>    8.3283    1.0000 </r>
       <r>    8.4565    1.0000 </r>
       <r>    8.5159    1.0000 </r>
       <r>    9.1124    1.0000 </r>
       <r>    9.5455    1.0000 </r>
       <r>    9.7093    1.0000 </r>
       <r>    9.9685    1.0000 </r>
       <r>    9.9908    1.0000 </r>
       <r>   10.6119    0.0000 </r>
       <r>   10.6214    0.0000 </r>
       <r>   11.1703    0.0000 </r>
       <r>   14.0140    0.0000 </r>
       <r>   15.6808    0.0000 </r>
       <r>   17.1818    0.0000 </r>
       <r>   18.9779    0.0000 </r>
       <r>   20.5301    0.0000 </r>
       <r>   21.3480    0.0000 </r>
      </set>
      <set comment="kpoint 32">
       <r>    2.6180    1.0000 </r>
       <r>    4.2181    1.0000 </r>
       <r>    4.9623    1.0000 </r>
       <r>    5.0553    1.0000 </r>
       <r>    5.0896    1.0000 </r>
       <r>    5.4451    1.0000 </r>
       <r>    5.5103    1.0000 </r>
       <r>    6.0191    1.0000 </r>
       <r>    6.9794    1.0000 </r>
       <r>    7.2199    1.0000 </r>
[...]
        <r>  0.0000  0.0004  0.0000  0.0000  0.0000  0.1904  0.0000  0.0000  0.0000 </r>
       </set>
       <set comment="band 10">
        <r>  0.0000  0.0004  0.0000  0.0000  0.0000  0.1894  0.0000  0.0000  0.0000 </r>
        <r>  0.0000  0.0000  0.0000  0.0000  0.0000  0.0000  0.0000  0.0012  0.5665 </r>
        <r>  0.0000  0.0000  0.0000  0.0000  0.0000  0.0012  0.0000  0.0000  0.0000 </r>
        <r>  0.0000  0.0000  0.0000  0.0004  0.0000  0.0000  0.0000  0.1893  0.0036 </r>
       </set>
       <set comment="band 11">
        <r>  0.0000  0.0000  0.0000  0.0000  0.0000  0.0012  0.0000  0.0000  0.0000 </r>
        <r>  0.0000  0.0000  0.0000  0.0004  0.0000  0.0000  0.0000  0.1895  0.0036 </r>
        <r>  0.0000  0.0004  0.0000  0.0000  0.0000  0.1895  0.0000  0.0000  0.0000 </r>
        <r>  0.0000  0.0000  0.0000  0.0000  0.0000  0.0000  0.0000  0.0012  0.5662 </r>
       </set>
       <set comment="band 12">
        <r>  0.0000  0.0000  0.0000  0.0000  0.0000  0.0000  0.0000  0.0000  0.5697 </r>
        <r>  0.0000  0.0004  0.0000  0.0000  0.0000  0.1907  0.0000  0.0000  0.0000 </r>
        <r>  0.0000  0.0000  0.0000  0.0004  0.0000  0.0000  0.0000  0.1907  0.0000 </r>
        <r>  0.0000  0.0000  0.0000  0.0000  0.0000  0.0000  0.0000  0.0000  0.0000 </r>
       </set>
       <set comment="band 13">
        <r>  0.0000  0.0001  0.0001  0.0000  0.1088  0.0000  0.0001  0.0000  0.0000 </r>
        <r>  0.0000  0.0001  0.0001  0.1243  0.0000  0.0000  0.0001  0.0940  0.0000 </r>
        <r>  0.0000  0.1243  0.0000  0.0001  0.0001  0.0940  0.0000  0.0000  0.0000 </r>
        <r>  0.0194  0.0000  0.1263  0.0001  0.0001  0.0000  0.1347  0.0000  0.0000 </r>
       </set>
       <set comment="band 14">
        <r>  0.0006  0.0018  0.0042  0.1185  0.0000  0.0013  0.0044  0.0897  0.0000 </r>
        <r>  0.0003  0.0041  0.0018  0.0000  0.1039  0.0031  0.0019  0.0000  0.0000 </r>
        <r>  0.0184  0.0000  0.1205  0.0041  0.0015  0.0000  0.1286  0.0031  0.0000 </r>
        <r>  0.0000  0.1186  0.0000  0.0018  0.0036  0.0897  0.0000  0.0013  0.0000 </r>
       </set>
       <set comment="band 15">
        <r>  0.0187  0.0006  0.1219  0.0038  0.0000  0.0004  0.1301  0.0029  0.0000 </r>
        <r>  0.0001  0.1200  0.0006  0.0001  0.0033  0.0907  0.0006  0.0000  0.0000 </r>
        <r>  0.0006  0.0001  0.0038  0.1200  0.0005  0.0000  0.0041  0.0907  0.0000 </r>
        <r>  0.0000  0.0038  0.0001  0.0006  0.1050  0.0029  0.0001  0.0004  0.0000 </r>
       </set>
       <set comment="band 16">
        <r>  0.0000  0.1220  0.0003  0.0021  0.0001  0.0923  0.0003  0.0016  0.0000 </r>
        <r>  0.0190  0.0003  0.1240  0.0001  0.0018  0.0002  0.1323  0.0000  0.0000 </r>
        <r>  0.0003  0.0001  0.0021  0.0003  0.1069  0.0000  0.0022  0.0002  0.0000 </r>
        <r>  0.0000  0.0021  0.0001  0.1220  0.0002  0.0016  0.0001  0.0924  0.0000 </r>
       </set>
       <set comment="band 17">
        <r>  0.0000  0.0000  0.0000  0.0000  0.0000  0.0000  0.0000  0.0000  0.0000 </r>
        <r>  0.0000  0.0000  0.0000  0.0005  0.0000  0.0000  0.0000  0.2966  0.0000 </r>
        <r>  0.0000  0.0005  0.0000  0.0000  0.0000  0.2965  0.0000  0.0000  0.0000 </r>
        <r>  0.0000  0.0000  0.0000  0.0000  0.0000  0.0000  0.0000  0.0000  0.3848 </r>
       </set>
       <set comment="band 18">
        <r>  0.0000  0.0000  0.0000  0.0000  0.0000  0.0000  0.0000  0.0000  0.3849 </r>
        <r>  0.0000  0.0005  0.0000  0.0000  0.0000  0.2965  0.0000  0.0000  0.0000 </r>
        <r>  0.0000  0.0000  0.0000  0.0005  0.0000  0.0000  0.0000  0.2965  0.0000 </r>
        <r>  0.0000  0.0000  0.0000  0.0000  0.0000  0.0000  0.0000  0.0000  0.0000 </r>
       </set>
       <set comment="band 19">
        <r>  0.0000  0.0000  0.0000  0.0005  0.0000  0.0000  0.0000  0.2967  0.0000 </r>
        <r>  0.0000  0.0000  0.0000  0.0000  0.0000  0.0000  0.0000  0.0000  0.0001 </r>
        <r>  0.0000  0.0000  0.0000  0.0000  0.0000  0.0000  0.0000  0.0000  0.3844 </r>
        <r>  0.0000  0.0005  0.0000  0.0000  0.0000  0.2966  0.0000  0.0000  0.0000 </r>
       </set>
       <set comment="band 20">
        <r>  0.0000  0.0005  0.0000  0.0000  0.0000  0.2967  0.0000  0.0000  0.0000 </r>
        <r>  0.0000  0.0000  0.0000  0.0000  0.0000  0.0000  0.0000  0.0000  0.3845 </r>
        <r>  0.0000  0.0000  0.0000  0.0000  0.0000  0.0000  0.0000  0.0000  0.0001 </r>
        <r>  0.0000  0.0000  0.0000  0.0005  0.0000  0.0000  0.0000  0.2966  0.0000 </r>
       </set>
       <set comment="band 21">
        <r>  0.0000  0.0000  0.0000  0.0898  0.0000  0.0000  0.0000  0.0191  0.0000 </r>
        <r>  0.0000  0.0000  0.0000  0.0000  0.3127  0.0000  0.0001  0.0000  0.0000 </r>
        <r>  0.0262  0.0000  0.0786  0.0000  0.0001  0.0000  0.2590  0.0000  0.0000 </r>
        <r>  0.0000  0.0898  0.0000  0.0000  0.0000  0.0190  0.0000  0.0000  0.0000 </r>
       </set>
       <set comment="band 22">
        <r>  0.0000  0.0898  0.0000  0.0000  0.0000  0.0191  0.0000  0.0000  0.0000 </r>
        <r>  0.0262  0.0000  0.0786  0.0000  0.0001  0.0000  0.2590  0.0000  0.0000 </r>
        <r>  0.0000  0.0000  0.0000  0.0000  0.3127  0.0000  0.0001  0.0000  0.0000 </r>
        <r>  0.0000  0.0000  0.0000  0.0898  0.0000  0.0000  0.0000  0.0190  0.0000 </r>
       </set>
       <set comment="band 23">
        <r>  0.0000  0.0000  0.0000  0.0000  0.3129  0.0000  0.0000  0.0000  0.0000 </r>
        <r>  0.0000  0.0000  0.0000  0.0898  0.0000  0.0000  0.0000  0.0191  0.0000 </r>
        <r>  0.0000  0.0898  0.0000  0.0000  0.0000  0.0191  0.0000  0.0000  0.0000 </r>
        <r>  0.0262  0.0000  0.0786  0.0000  0.0000  0.0000  0.2592  0.0000  0.0000 </r>
       </set>
       <set comment="band 24">
        <r>  0.0262  0.0000  0.0786  0.0000  0.0000  0.0000  0.2592  0.0000  0.0000 </r>
        <r>  0.0000  0.0898  0.0000  0.0000  0.0000  0.0191  0.0000  0.0000  0.0000 </r>
        <r>  0.0000  0.0000  0.0000  0.0898  0.0000  0.0000  0.0000  0.0191  0.0000 </r>
        <r>  0.0000  0.0000  0.0000  0.0000  0.3128  0.0000  0.0000  0.0000  0.0000 </r>
       </set>
       <set comment="band 25">
        <r>  0.0004  0.0009  0.0000  0.0181  0.0000  0.0063  0.0000  0.1316  0.0000 </r>
        <r>  0.0206  0.0000  0.0015  0.0000  0.1104  0.0001  0.0001  0.0001  0.0000 </r>
        <r>  0.4279  0.0000  0.0313  0.0000  0.0053  0.0001  0.0023  0.0001  0.0000 </r>
        <r>  0.0002  0.0182  0.0000  0.0009  0.0001  0.1316  0.0000  0.0063  0.0000 </r>
       </set>
       <set comment="band 26">
        <r>  0.0000  0.0179  0.0000  0.0009  0.0019  0.1295  0.0000  0.0064  0.0000 </r>
        <r>  0.4211  0.0000  0.0308  0.0003  0.0054  0.0000  0.0023  0.0022  0.0000 </r>
        <r>  0.0208  0.0003  0.0015  0.0000  0.1087  0.0022  0.0001  0.0000  0.0000 </r>
        <r>  0.0073  0.0009  0.0005  0.0179  0.0000  0.0064  0.0000  0.1295  0.0000 </r>
       </set>
       <set comment="band 27">
        <r>  0.0007  0.0003  0.0001  0.0000  0.1138  0.0023  0.0000  0.0000  0.0000 </r>
        <r>  0.0074  0.0000  0.0005  0.0187  0.0000  0.0002  0.0000  0.1356  0.0000 </r>
        <r>  0.0000  0.0187  0.0000  0.0000  0.0019  0.1356  0.0000  0.0002  0.0000 </r>
        <r>  0.4410  0.0000  0.0322  0.0003  0.0002  0.0000  0.0024  0.0023  0.0000 </r>
       </set>
       <set comment="band 28">
        <r>  0.4480  0.0000  0.0327  0.0000  0.0002  0.0000  0.0024  0.0001  0.0000 </r>
        <r>  0.0000  0.0190  0.0000  0.0000  0.0001  0.1378  0.0000  0.0002  0.0000 </r>
        <r>  0.0004  0.0000  0.0000  0.0190  0.0000  0.0002  0.0000  0.1378  0.0000 </r>
        <r>  0.0007  0.0000  0.0001  0.0000  0.1156  0.0001  0.0000  0.0000  0.0000 </r>
       </set>
      </set>
      <set comment="kpoint 260">
       <set comment="band 1">
        <r>  0.1090  0.0000  0.0000  0.0000  0.0635  0.0267  0.0000  0.0306  0.0000 </r>
        <r>  0.0304  0.0000  0.0000  0.0000  0.0306  0.0958  0.0000  0.0635  0.0000 </r>
        <r>  0.0348  0.0000  0.0000  0.0000  0.0267  0.0635  0.0000  0.0958  0.0000 </r>
        <r>  0.0723  0.0000  0.0000  0.0000  0.0958  0.0306  0.0000  0.0267  0.0000 </r>
       </set>
       <set comment="band 2">
        <r>  0.1060  0.0000  0.0000  0.0000  0.0362  0.0871  0.0000  0.0001  0.0000 </r>
        <r>  0.0992  0.0000  0.0000  0.0000  0.0001  0.0931  0.0000  0.0363  0.0000 </r>
        <r>  0.0001  0.0000  0.0000  0.0000  0.0872  0.0363  0.0000  0.0931  0.0000 </r>
        <r>  0.0413  0.0000  0.0000  0.0000  0.0931  0.0001  0.0000  0.0871  0.0000 </r>
       </set>
       <set comment="band 3">
        <r>  0.0020  0.0000  0.0000  0.0000  0.0785  0.0224  0.0000  0.1139  0.0000 </r>
        <r>  0.0255  0.0000  0.0000  0.0000  0.1140  0.0017  0.0000  0.0785  0.0000 </r>
        <r>  0.1297  0.0000  0.0000  0.0000  0.0224  0.0785  0.0000  0.0017  0.0000 </r>
        <r>  0.0894  0.0000  0.0000  0.0000  0.0017  0.1140  0.0000  0.0224  0.0000 </r>
       </set>
       <set comment="band 4">
        <r>  0.0296  0.0000  0.0000  0.0000  0.0383  0.0804  0.0000  0.0719  0.0000 </r>
        <r>  0.0915  0.0000  0.0000  0.0000  0.0720  0.0260  0.0000  0.0383  0.0000 </r>
        <r>  0.0819  0.0000  0.0000  0.0000  0.0804  0.0383  0.0000  0.0260  0.0000 </r>
        <r>  0.0436  0.0000  0.0000  0.0000  0.0260  0.0719  0.0000  0.0804  0.0000 </r>
       </set>
       <set comment="band 5">
        <r>  0.0000  0.0000  0.0000  0.0000  0.0000  0.0002  0.0000  0.0196  0.0000 </r>
        <r>  0.0000  0.0000  0.0000  0.0000  0.2436  0.0000  0.0034  0.0000  0.0002 </r>
        <r>  0.0000  0.0000  0.0000  0.0000  0.0016  0.0000  0.5258  0.0000  0.0328 </r>
        <r>  0.0000  0.0000  0.0000  0.0000  0.0000  0.1250  0.0000  0.0008  0.0000 </r>
       </set>
       <set comment="band 6">
        <r>  0.0000  0.0000  0.0000  0.0000  0.0000  0.0222  0.0000  0.0001  0.0000 </r>
        <r>  0.0000  0.0000  0.0000  0.0000  0.0015  0.0000  0.5304  0.0000  0.0281 </r>
        <r>  0.0000  0.0000  0.0000  0.0000  0.2458  0.0000  0.0033  0.0000  0.0003 </r>
        <r>  0.0000  0.0000  0.0000  0.0000  0.0000  0.0009  0.0000  0.1202  0.0000 </r>
       </set>
       <set comment="band 7">
        <r>  0.0000  0.0000  0.0000  0.0000  0.0000  0.0000  0.0000  0.2407  0.0000 </r>
        <r>  0.0000  0.0000  0.0000  0.0000  0.0153  0.0000  0.0000  0.0000  0.0001 </r>
        <r>  0.0000  0.0000  0.0000  0.0000  0.0000  0.0000  0.0330  0.0000  0.5291 </r>
        <r>  0.0000  0.0000  0.0000  0.0000  0.0000  0.1346  0.0000  0.0000  0.0000 </r>
       </set>
       <set comment="band 8">
        <r>  0.0000  0.0000  0.0000  0.0000  0.0002  0.0217  0.0000  0.0000  0.0000 </r>
        <r>  0.0000  0.0000  0.0000  0.0000  0.0000  0.0000  0.0031  0.1712  0.0474 </r>
        <r>  0.0000  0.0000  0.0000  0.0000  0.0014  0.1843  0.0000  0.0000  0.0000 </r>
        <r>  0.0000  0.0000  0.0000  0.0000  0.0000  0.0000  0.0005  0.0120  0.5110 </r>
       </set>
       <set comment="band 9">
        <r>  0.0000  0.0000  0.0000  0.0000  0.0001  0.2164  0.0000  0.0000  0.0000 </r>
        <r>  0.0000  0.0000  0.0000  0.0000  0.0000  0.0000  0.0252  0.0165  0.4865 </r>
        <r>  0.0000  0.0000  0.0000  0.0000  0.0117  0.0185  0.0000  0.0000  0.0001 </r>
        <r>  0.0000  0.0000  0.0000  0.0000  0.0000  0.0000  0.0001  0.1275  0.0503 </r>
       </set>
       <set comment="band 10">
        <r>  0.0000  0.0000  0.0000  0.0000  0.2601  0.0000  0.0002  0.0000  0.0001 </r>
        <r>  0.0000  0.0000  0.0000  0.0000  0.0000  0.0000  0.0000  0.0728  0.0000 </r>
        <r>  0.0000  0.0000  0.0000  0.0000  0.0000  0.0577  0.0000  0.0001  0.0000 </r>
        <r>  0.0000  0.0000  0.0000  0.0000  0.0001  0.0000  0.5611  0.0000  0.0006 </r>
       </set>
       <set comment="band 11">
        <r>  0.0000  0.0000  0.0000  0.0000  0.0001  0.0000  0.0023  0.0000  0.5593 </r>
        <r>  0.0000  0.0000  0.0000  0.0000  0.0000  0.1804  0.0000  0.0000  0.0000 </r>
        <r>  0.0000  0.0000  0.0000  0.0000  0.0000  0.0000  0.0000  0.2094  0.0000 </r>
        <r>  0.0000  0.0000  0.0000  0.0000  0.0011  0.0000  0.0002  0.0000  0.0000 </r>
       </set>
       <set comment="band 12">
        <r>  0.0000  0.0000  0.0000  0.0000  0.0001  0.0000  0.5594  0.0000  0.0024 </r>
        <r>  0.0000  0.0000  0.0000  0.0000  0.0000  0.0802  0.0000  0.0000  0.0000 </r>
        <r>  0.0000  0.0000  0.0000  0.0000  0.0000  0.0000  0.0000  0.0511  0.0000 </r>
        <r>  0.0000  0.0000  0.0000  0.0000  0.2595  0.0000  0.0001  0.0000  0.0000 </r>
       </set>
       <set comment="band 13">
        <r>  0.0000  0.0000  0.0002  0.0000  0.0000  0.0000  0.0000  0.0000  0.0000 </r>
        <r>  0.0000  0.0002  0.0000  0.2377  0.0000  0.0000  0.0000  0.0000  0.0000 </r>
        <r>  0.0000  0.2377  0.0000  0.0002  0.0000  0.0000  0.0000  0.0000  0.0000 </r>
        <r>  0.0000  0.0000  0.2377  0.0000  0.0000  0.0000  0.0000  0.0000  0.0000 </r>
       </set>
       <set comment="band 14">
        <r>  0.0000  0.0000  0.2375  0.0002  0.0000  0.0000  0.0000  0.0000  0.0000 </r>
        <r>  0.0000  0.2375  0.0000  0.0002  0.0000  0.0000  0.0000  0.0000  0.0000 </r>
        <r>  0.0000  0.0002  0.0002  0.2375  0.0000  0.0000  0.0000  0.0000  0.0000 </r>
        <r>  0.0000  0.0002  0.0002  0.0000  0.0000  0.0000  0.0000  0.0000  0.0000 </r>
       </set>
       <set comment="band 15">
        <r>  0.0000  0.0071  0.0002  0.2307  0.0000  0.0000  0.0000  0.0000  0.0000 </r>
        <r>  0.0000  0.0002  0.0071  0.0000  0.0000  0.0000  0.0000  0.0000  0.0000 </r>
        <r>  0.0000  0.0000  0.2307  0.0002  0.0000  0.0000  0.0000  0.0000  0.0000 </r>
        <r>  0.0000  0.2307  0.0000  0.0071  0.0000  0.0000  0.0000  0.0000  0.0000 </r>
       </set>
       <set comment="band 16">
        <r>  0.0000  0.2308  0.0000  0.0071  0.0000  0.0000  0.0000  0.0000  0.0000 </r>
        <r>  0.0000  0.0000  0.2308  0.0000  0.0000  0.0000  0.0000  0.0000  0.0000 </r>
        <r>  0.0000  0.0000  0.0071  0.0000  0.0000  0.0000  0.0000  0.0000  0.0000 </r>
        <r>  0.0000  0.0071  0.0000  0.2308  0.0000  0.0000  0.0000  0.0000  0.0000 </r>
       </set>
       <set comment="band 17">
        <r>  0.0000  0.0000  0.0000  0.0000  0.0000  0.0004  0.0000  0.0285  0.0000 </r>
        <r>  0.0000  0.0000  0.0000  0.0000  0.3629  0.0000  0.0047  0.0000  0.0002 </r>
        <r>  0.0000  0.0000  0.0000  0.0000  0.0046  0.0000  0.3680  0.0000  0.0237 </r>
        <r>  0.0000  0.0000  0.0000  0.0000  0.0000  0.1880  0.0000  0.0022  0.0000 </r>
       </set>
       <set comment="band 18">
        <r>  0.0000  0.0000  0.0000  0.0000  0.0000  0.0336  0.0000  0.0004  0.0000 </r>
        <r>  0.0000  0.0000  0.0000  0.0000  0.0046  0.0000  0.3724  0.0000  0.0194 </r>
        <r>  0.0000  0.0000  0.0000  0.0000  0.3672  0.0000  0.0046  0.0000  0.0003 </r>
        <r>  0.0000  0.0000  0.0000  0.0000  0.0000  0.0024  0.0000  0.1786  0.0000 </r>
       </set>
       <set comment="band 19">
        <r>  0.0000  0.0000  0.0000  0.0000  0.0005  0.0000  0.0000  0.0000  0.0000 </r>
        <r>  0.0000  0.0000  0.0000  0.0000  0.0000  0.0000  0.0000  0.2809  0.0000 </r>
        <r>  0.0000  0.0000  0.0000  0.0000  0.0000  0.3052  0.0000  0.0000  0.0000 </r>
        <r>  0.0000  0.0000  0.0000  0.0000  0.0000  0.0000  0.0005  0.0000  0.3963 </r>
       </set>
       <set comment="band 20">
        <r>  0.0000  0.0000  0.0000  0.0000  0.0000  0.0000  0.0014  0.0001  0.3954 </r>
        <r>  0.0000  0.0000  0.0000  0.0000  0.0000  0.2723  0.0000  0.0000  0.0000 </r>
        <r>  0.0000  0.0000  0.0000  0.0000  0.0000  0.0000  0.0000  0.3127  0.0001 </r>
        <r>  0.0000  0.0000  0.0000  0.0000  0.0014  0.0000  0.0000  0.0000  0.0000 </r>
       </set>
       <set comment="band 21">
        <r>  0.0000  0.0000  0.0000  0.0000  0.0000  0.0001  0.0000  0.3623  0.0001 </r>
        <r>  0.0000  0.0000  0.0000  0.0000  0.0237  0.0000  0.0000  0.0000  0.0001 </r>
        <r>  0.0000  0.0000  0.0000  0.0000  0.0000  0.0000  0.0240  0.0000  0.3725 </r>
        <r>  0.0000  0.0000  0.0000  0.0000  0.0000  0.2008  0.0000  0.0000  0.0000 </r>
       </set>
       <set comment="band 22">
        <r>  0.0000  0.0000  0.0000  0.0000  0.0000  0.3571  0.0000  0.0001  0.0000 </r>
        <r>  0.0000  0.0000  0.0000  0.0000  0.0000  0.0000  0.0196  0.0000  0.3769 </r>
        <r>  0.0000  0.0000  0.0000  0.0000  0.0193  0.0000  0.0000  0.0000  0.0001 </r>
        <r>  0.0000  0.0000  0.0000  0.0000  0.0000  0.0000  0.0000  0.2103  0.0000 </r>
       </set>
       <set comment="band 23">
        <r>  0.0000  0.0000  0.0000  0.0000  0.3901  0.0000  0.0005  0.0000  0.0000 </r>
        <r>  0.0000  0.0000  0.0000  0.0000  0.0000  0.0002  0.0000  0.1101  0.0000 </r>
        <r>  0.0000  0.0000  0.0000  0.0000  0.0000  0.0857  0.0000  0.0001  0.0000 </r>
        <r>  0.0000  0.0000  0.0000  0.0000  0.0005  0.0000  0.3956  0.0000  0.0005 </r>
       </set>
       <set comment="band 24">
        <r>  0.0000  0.0000  0.0000  0.0000  0.0005  0.0000  0.3949  0.0000  0.0014 </r>
        <r>  0.0000  0.0000  0.0000  0.0000  0.0000  0.1185  0.0000  0.0001  0.0000 </r>
        <r>  0.0000  0.0000  0.0000  0.0000  0.0000  0.0001  0.0000  0.0781  0.0000 </r>
        <r>  0.0000  0.0000  0.0000  0.0000  0.3891  0.0000  0.0005  0.0000  0.0000 </r>
       </set>
       <set comment="band 25">
        <r>  0.0003  0.0000  0.0000  0.0000  0.0000  0.0128  0.0000  0.1336  0.0000 </r>
        <r>  0.0436  0.0000  0.0000  0.0000  0.1335  0.0001  0.0000  0.0000  0.0000 </r>
        <r>  0.4556  0.0000  0.0000  0.0000  0.0128  0.0000  0.0000  0.0001  0.0000 </r>
        <r>  0.0001  0.0000  0.0000  0.0000  0.0001  0.1336  0.0000  0.0128  0.0000 </r>
       </set>
       <set comment="band 26">
        <r>  0.0000  0.0000  0.0000  0.0000  0.0004  0.1333  0.0000  0.0128  0.0000 </r>
        <r>  0.4546  0.0000  0.0000  0.0000  0.0128  0.0000  0.0000  0.0004  0.0000 </r>
        <r>  0.0437  0.0000  0.0000  0.0000  0.1332  0.0004  0.0000  0.0000  0.0000 </r>
        <r>  0.0013  0.0000  0.0000  0.0000  0.0000  0.0128  0.0000  0.1333  0.0000 </r>
       </set>
       <set comment="band 27">
        <r>  0.0018  0.0000  0.0000  0.0000  0.1456  0.0004  0.0000  0.0000  0.0000 </r>
        <r>  0.0014  0.0000  0.0000  0.0000  0.0000  0.0005  0.0000  0.1455  0.0000 </r>
        <r>  0.0000  0.0000  0.0000  0.0000  0.0004  0.1455  0.0000  0.0005  0.0000 </r>
        <r>  0.4964  0.0000  0.0000  0.0000  0.0005  0.0000  0.0000  0.0004  0.0000 </r>
       </set>
       <set comment="band 28">
        <r>  0.4975  0.0000  0.0000  0.0000  0.0005  0.0000  0.0000  0.0001  0.0000 </r>
        <r>  0.0000  0.0000  0.0000  0.0000  0.0001  0.1458  0.0000  0.0005  0.0000 </r>
        <r>  0.0003  0.0000  0.0000  0.0000  0.0000  0.0005  0.0000  0.1458  0.0000 </r>
        <r>  0.0018  0.0000  0.0000  0.0000  0.1459  0.0001  0.0000  0.0000  0.0000 </r>
       </set>
      </set>
     </set>
    </set>
   </array>
  </projected>
 </calculation>
 <structure name="finalpos" >
  <crystal>
   <varray name="basis" >
    <v>      -3.98609800       3.98609800       0.00000000 </v>
    <v>      -3.98609800       0.00000000       3.98609800 </v>
    <v>       3.98609800       0.00000000       0.00000000 </v>
   </varray>
   <i name="volume">     63.33502050 </i>
   <varray name="rec_basis" >
    <v>       0.00000000       0.25087191      -0.00000000 </v>
    <v>       0.00000000      -0.00000000       0.25087191 </v>
    <v>       0.25087191       0.25087191       0.25087191 </v>
   </varray>
  </crystal>
  <varray name="positions" >
   <v>       0.00000000       0.00000000       0.00000000 </v>
   <v>       0.50000000       0.50000000       0.00000000 </v>
   <v>       0.00000000       0.50000000       0.00000000 </v>
   <v>       0.50000000       0.00000000       0.00000000 </v>
  </varray>
 </structure>
</modeling>
