 running on   16 total cores
 distrk:  each k-point on   16 cores,    1 groups
 distr:  one band on    4 cores,    4 groups
 vasp.6.2.0 18Jan21 (build Feb  1 2022 01:28:57) complex                         
 POSCAR found type information on POSCAR Pt
 POSCAR found :  1 types and       4 ions
 scaLAPACK will be used
 -----------------------------------------------------------------------------
|                                                                             |
|               ----> ADVICE to this user running VASP <----                  |
|                                                                             |
|     You enforced a specific xc type in the INCAR file but a different       |
|     type was found in the POTCAR file.                                      |
|     I HOPE YOU KNOW WHAT YOU ARE DOING!                                     |
|                                                                             |
 -----------------------------------------------------------------------------

 LDA part: xc-table for Pade appr. of Perdew
 -----------------------------------------------------------------------------
|                                                                             |
|           W    W    AA    RRRRR   N    N  II  N    N   GGGG   !!!           |
|           W    W   A  A   R    R  NN   N  II  NN   N  G    G  !!!           |
|           W    W  A    A  R    R  N N  N  II  N N  N  G       !!!           |
|           W WW W  AAAAAA  RRRRR   N  N N  II  N  N N  G  GGG   !            |
|           WW  WW  A    A  R   R   N   NN  II  N   NN  G    G                |
|           W    W  A    A  R    R  N    N  II  N    N   GGGG   !!!           |
|                                                                             |
|     The number of bands has been changed from the values supplied in        |
|     the INCAR file. This is a result of running the parallel version.       |
|     The orbitals not found in the WAVECAR file will be initialized with     |
|     random numbers, which is usually adequate. For correlated               |
|     calculations, however, you should redo the groundstate calculation.     |
|     I found NBANDS = 26. Now, NBANDS = 28.                                  |
|                                                                             |
 -----------------------------------------------------------------------------

 POSCAR, INCAR and KPOINTS ok, starting setup
 FFT: planning ...
 WAVECAR not read
 WARNING: random wavefunctions but no delay for mixing, default for NELMDL
 entering main loop
       N       E                     dE             d eps       ncg     rms          rms(c)
DAV:   1     0.209926885986E+03    0.20993E+03   -0.17863E+04 14912   0.114E+03
DAV:   2    -0.171145855838E+02   -0.22704E+03   -0.21780E+03 16380   0.274E+02
DAV:   3    -0.231371925862E+02   -0.60226E+01   -0.58882E+01 16140   0.427E+01
DAV:   4    -0.231827448465E+02   -0.45552E-01   -0.45532E-01 15492   0.399E+00
DAV:   5    -0.231832359653E+02   -0.49112E-03   -0.49111E-03 15708   0.447E-01    0.219E+01
DAV:   6    -0.219633382700E+02    0.12199E+01   -0.23372E+00 15084   0.106E+01    0.119E+01
DAV:   7    -0.218403846514E+02    0.12295E+00   -0.46648E-01 15448   0.460E+00    0.425E+00
DAV:   8    -0.218296624763E+02    0.10722E-01   -0.40896E-02 14776   0.127E+00    0.110E+00
DAV:   9    -0.218288680923E+02    0.79438E-03   -0.80360E-04 15524   0.187E-01    0.845E-02
DAV:  10    -0.218288933845E+02   -0.25292E-04   -0.26255E-05  7800   0.382E-02
   1 F= -.21828893E+02 E0= -.21822580E+02  d E =-.126266E-01
