       N       E                     dE             d eps       ncg     rms          rms(c)
DAV:   1     0.405142030815E+02    0.40514E+02   -0.51472E+03  6352   0.744E+02
DAV:   2    -0.512101091644E+01   -0.45635E+02   -0.43762E+02  7472   0.169E+02
DAV:   3    -0.576172669793E+01   -0.64072E+00   -0.63578E+00  7620   0.186E+01
DAV:   4    -0.576425336184E+01   -0.25267E-02   -0.25264E-02  7624   0.138E+00
DAV:   5    -0.576427319244E+01   -0.19831E-04   -0.19831E-04  7836   0.111E-01    0.126E+01
DAV:   6    -0.545510202137E+01    0.30917E+00   -0.61249E-01  6808   0.607E+00    0.679E+00
DAV:   7    -0.541455168383E+01    0.40550E-01   -0.14804E-01  7444   0.294E+00    0.242E+00
DAV:   8    -0.541156231874E+01    0.29894E-02   -0.67252E-03  6968   0.658E-01    0.629E-01
DAV:   9    -0.541130457493E+01    0.25774E-03   -0.18006E-04  7208   0.110E-01    0.689E-02
DAV:  10    -0.541130624674E+01   -0.16718E-05   -0.63523E-06  3508   0.204E-02
   1 F= -.54113062E+01 E0= -.54098954E+01  d E =-.282166E-02
