 vasp.6.2.0 18Jan21 (build Feb  1 2022 01:28:57) complex                         
 executed on             LinuxPGI date 2022.05.18  19:37:41
 running on   16 total cores
 distrk:  each k-point on   16 cores,    1 groups
 distr:  one band on NCORE=   4 cores,    4 groups


--------------------------------------------------------------------------------------------------------


 INCAR:
   ALGO = 38
   EDIFF = 0.0001
   EDIFFG = -0.03
   ENCUT = 420
   GGA = RP
   IBRION = 2
   ISIF = 0
   ISMEAR = 0
   ISPIN = 1
   ISYM = 0
   LASPH = False
   LORBIT = 11
   LREAL = False
   LVTOT = False
   LWAVE = False
   NCORE = 4
   NELM = 60
   NELMIN = 4
   NSW = 0
   PREC = Normal
   SIGMA = 0.05
   SYMPREC = 1e-05

 POTCAR:    PAW_PBE Pt 04Feb2005                  
 POTCAR:    PAW_PBE Pt 04Feb2005                  
   SHA256 =  3ed90460adef76debcff1cfb73ee1349b515b1a3db03439735b44de3a8db7dc8 Pt/POTCAR             
   COPYR  = (c) Copyright 04Feb2005 Georg Kresse                                                    
   COPYR  = This file is part of the software VASP. Any use, copying, and all other rights are regul
   COPYR  = If you do not have a valid VASP license, you may not use, copy or distribute this file. 
   VRHFIN =Pt: s1d9                                                                                 
   LEXCH  = PE                                                                                      
   EATOM  =   729.1176 eV,   53.5886 Ry                                                             
                                                                                                    
   TITEL  = PAW_PBE Pt 04Feb2005                                                                    
   LULTRA =        F    use ultrasoft PP ?                                                          
   IUNSCR =        1    unscreen: 0-lin 1-nonlin 2-no                                               
   RPACOR =    2.330    partial core radius                                                         
   POMASS =  195.080; ZVAL   =   10.000    mass and valenz                                          
   RCORE  =    2.600    outmost cutoff radius                                                       
   RWIGS  =    2.750; RWIGS  =    1.455    wigner-seitz radius (au A)                               
   ENMAX  =  230.283; ENMIN  =  172.712 eV                                                          
   ICORE  =        3    local potential                                                             
   LCOR   =        T    correct aug charges                                                         
   LPAW   =        T    paw PP                                                                      
   EAUG   =  358.966                                                                                
   DEXC   =    0.000                                                                                
   RMAX   =    2.658    core radius for proj-oper                                                   
   RAUG   =    1.300    factor for augmentation sphere                                              
   RDEP   =    2.761    radius for radial grids                                                     
   RDEPT  =    2.203    core radius for aug-charge                                                  
                                                                                                    
   Atomic configuration                                                                             
   16 entries                                                                                       
     n  l   j            E        occ.                                                              
     1  0  0.50    -78401.1885   2.0000                                                             
     2  0  0.50    -13770.7750   2.0000                                                             
     2  1  1.50    -11931.0468   6.0000                                                             
     3  0  0.50     -3234.7234   2.0000                                                             
     3  1  1.50     -2699.2216   6.0000                                                             
     3  2  2.50     -2119.5714  10.0000                                                             
     4  0  0.50      -695.1528   2.0000                                                             
     4  1  1.50      -519.6034   6.0000                                                             
     4  2  2.50      -306.6786  10.0000                                                             
     4  3  3.50       -70.1041  14.0000                                                             
     5  0  0.50      -101.7747   2.0000                                                             
     5  1  1.50       -55.9873   6.0000                                                             
     5  2  2.50        -6.1423   9.0000                                                             
     6  0  0.50        -5.6573   1.0000                                                             
     6  1  1.50        -6.8029   0.0000                                                             
     5  3  2.50        -1.3606   0.0000                                                             
   Description                                                                                      
     l       E           TYP  RCUT    TYP  RCUT                                                     
     2     -6.1423404     23  2.500                                                                 
     2     -7.5029230     23  2.500                                                                 
     0     -5.6573207     23  2.500                                                                 
     0      0.7416693     23  2.500                                                                 
     1     -2.7211652     23  2.600                                                                 
     1     20.4087390     23  2.600                                                                 
     3     -1.3605826     23  2.500                                                                 
  local pseudopotential read in
  partial core-charges read in
  partial kinetic energy density read in
  atomic valenz-charges read in
  non local Contribution for L=            2  read in
    real space projection operators read in
  non local Contribution for L=            2  read in
    real space projection operators read in
  non local Contribution for L=            0  read in
    real space projection operators read in
  non local Contribution for L=            0  read in
    real space projection operators read in
  non local Contribution for L=            1  read in
    real space projection operators read in
  non local Contribution for L=            1  read in
    real space projection operators read in
    PAW grid and wavefunctions read in
 
   number of l-projection  operators is LMAX  =            6
   number of lm-projection operators is LMMAX =           18
 
 -----------------------------------------------------------------------------
|                                                                             |
|               ----> ADVICE to this user running VASP <----                  |
|                                                                             |
|     You enforced a specific xc type in the INCAR file but a different       |
|     type was found in the POTCAR file.                                      |
|     I HOPE YOU KNOW WHAT YOU ARE DOING!                                     |
|                                                                             |
 -----------------------------------------------------------------------------

  PAW_PBE Pt 04Feb2005                  :
 energy of atom  1       EATOM= -729.1176
 kinetic energy error for atom=    0.0052 (will be added to EATOM!!)
 
 
 POSCAR: Pt1
  positions in direct lattice
  velocities in cartesian coordinates
 exchange correlation table for  LEXCH =        9
   RHO(1)=    0.500       N(1)  =     2000
   RHO(2)=  100.500       N(2)  =     4000
 


--------------------------------------------------------------------------------------------------------


 ion  position               nearest neighbor table
   1  0.000  0.000  0.000-
 

IMPORTANT INFORMATION: All symmetrisations will be switched off!
NOSYMM: (Re-)initialisation of all symmetry stuff for point group C_1.


----------------------------------------------------------------------------------------

                                     Primitive cell                                     

  volume of cell :      18.0883

  direct lattice vectors                    reciprocal lattice vectors
     2.551735000  0.000005000  1.473259000     0.391890897 -0.138555073 -0.000000696
     0.850584000  2.405795000  1.473259000    -0.000000407  0.415663590 -0.000000705
     0.000007000  0.000005000  2.946496000    -0.195946708 -0.138555293  0.339386873

  length of vectors
     2.946496834  2.946495343  2.946496000     0.415663305  0.415663590  0.415663483

  position of ions in fractional coordinates (direct lattice)
     0.000000000  0.000000000  0.000000000

  ion indices of the primitive-cell ions
   primitive index   ion index
                 1           1

----------------------------------------------------------------------------------------

 
 -----------------------------------------------------------------------------
|                                                                             |
|           W    W    AA    RRRRR   N    N  II  N    N   GGGG   !!!           |
|           W    W   A  A   R    R  NN   N  II  NN   N  G    G  !!!           |
|           W    W  A    A  R    R  N N  N  II  N N  N  G       !!!           |
|           W WW W  AAAAAA  RRRRR   N  N N  II  N  N N  G  GGG   !            |
|           WW  WW  A    A  R   R   N   NN  II  N   NN  G    G                |
|           W    W  A    A  R    R  N    N  II  N    N   GGGG   !!!           |
|                                                                             |
|     The requested file  could not be found or opened for reading            |
|     k-point information. Automatic k-point generation is used as a          |
|     fallback, which may lead to unwanted results.                           |
|                                                                             |
 -----------------------------------------------------------------------------

 

Automatic generation of k-mesh.
 Grid dimensions derived from KSPACING:
 generate k-points for:    6    6    6

 Generating k-lattice:

  Cartesian coordinates                     Fractional coordinates (reciprocal lattice)
     0.065315149 -0.023092512 -0.000000116     0.166666667  0.000000000  0.000000000
    -0.000000068  0.069277265 -0.000000118    -0.000000000  0.166666667 -0.000000000
    -0.032657785 -0.023092549  0.056564479     0.000000000 -0.000000000  0.166666667

  Length of vectors
     0.069277218  0.069277265  0.069277247

  Shift w.r.t. Gamma in fractional coordinates (k-lattice)
     0.000000000  0.000000000  0.000000000

 
 Subroutine IBZKPT returns following result:
 ===========================================
 
 Found    112 irreducible k-points:
 
 Following reciprocal coordinates:
            Coordinates               Weight
  0.000000  0.000000  0.000000      1.000000
  0.166667  0.000000  0.000000      2.000000
  0.000000  0.166667  0.000000      2.000000
  0.000000  0.000000  0.166667      2.000000
  0.166667  0.166667  0.166667      2.000000
  0.333333  0.000000  0.000000      2.000000
  0.000000  0.333333  0.000000      2.000000
  0.000000  0.000000  0.333333      2.000000
  0.333333  0.333333  0.333333      2.000000
  0.500000  0.000000  0.000000      1.000000
  0.000000  0.500000  0.000000      1.000000
  0.000000  0.000000  0.500000      1.000000
  0.500000  0.500000  0.500000      1.000000
  0.166667  0.166667  0.000000      2.000000
  0.000000  0.166667  0.166667      2.000000
  0.166667  0.000000  0.166667      2.000000
  0.333333  0.166667  0.000000      2.000000
  0.000000  0.333333  0.166667      2.000000
  0.166667  0.000000  0.333333      2.000000
  0.166667  0.166667 -0.166667      2.000000
  0.333333  0.166667  0.333333      2.000000
  0.166667  0.333333  0.000000      2.000000
  0.166667 -0.166667 -0.166667      2.000000
  0.333333  0.333333  0.166667      2.000000
  0.000000  0.166667  0.333333      2.000000
 -0.166667  0.166667 -0.166667      2.000000
  0.166667  0.333333  0.333333      2.000000
  0.333333  0.000000  0.166667      2.000000
  0.500000  0.166667  0.000000      2.000000
  0.000000  0.500000  0.166667      2.000000
  0.166667  0.000000  0.500000      2.000000
  0.166667  0.166667 -0.333333      2.000000
  0.500000  0.333333  0.500000      2.000000
  0.166667  0.500000  0.000000      2.000000
  0.333333 -0.166667 -0.166667      2.000000
  0.500000  0.500000  0.333333      2.000000
  0.000000  0.166667  0.500000      2.000000
 -0.166667  0.333333 -0.166667      2.000000
  0.333333  0.500000  0.500000      2.000000
  0.500000  0.000000  0.166667      2.000000
 -0.333333  0.166667  0.000000      2.000000
  0.000000 -0.333333  0.166667      2.000000
  0.166667  0.000000 -0.333333      2.000000
  0.166667  0.166667  0.500000      2.000000
 -0.333333  0.500000 -0.333333      2.000000
  0.166667 -0.333333  0.000000      2.000000
  0.500000 -0.166667 -0.166667      2.000000
 -0.333333 -0.333333  0.500000      2.000000
  0.000000  0.166667 -0.333333      2.000000
 -0.166667  0.500000 -0.166667      2.000000
  0.500000 -0.333333 -0.333333      2.000000
 -0.333333  0.000000  0.166667      2.000000
 -0.166667  0.166667  0.000000      2.000000
  0.000000 -0.166667  0.166667      2.000000
  0.166667  0.000000 -0.166667      2.000000
  0.166667  0.166667  0.333333      2.000000
 -0.166667 -0.333333 -0.166667      2.000000
 -0.333333 -0.166667 -0.166667      2.000000
  0.333333  0.333333  0.000000      2.000000
  0.000000  0.333333  0.333333      2.000000
  0.333333  0.000000  0.333333      2.000000
  0.500000  0.333333  0.000000      2.000000
  0.000000  0.500000  0.333333      2.000000
  0.333333  0.000000  0.500000      2.000000
  0.333333  0.333333 -0.166667      2.000000
  0.500000  0.166667  0.500000      2.000000
  0.333333  0.500000  0.000000      2.000000
  0.166667 -0.333333 -0.333333      2.000000
  0.500000  0.500000  0.166667      2.000000
  0.000000  0.333333  0.500000      2.000000
 -0.333333  0.166667 -0.333333      2.000000
  0.166667  0.500000  0.500000      2.000000
  0.500000  0.000000  0.333333      2.000000
 -0.333333  0.333333  0.000000      2.000000
  0.000000 -0.333333  0.333333      2.000000
  0.333333  0.000000 -0.333333      2.000000
  0.333333  0.333333 -0.333333      2.000000
 -0.333333  0.333333 -0.333333      2.000000
  0.333333 -0.333333 -0.333333      2.000000
  0.500000  0.500000  0.000000      1.000000
  0.000000  0.500000  0.500000      1.000000
  0.500000  0.000000  0.500000      1.000000
  0.500000  0.333333  0.166667      2.000000
  0.166667  0.500000  0.333333      2.000000
  0.333333  0.166667  0.500000      2.000000
  0.333333  0.166667 -0.166667      2.000000
  0.500000  0.166667  0.333333      2.000000
  0.166667 -0.333333 -0.166667      2.000000
  0.166667  0.333333 -0.166667      2.000000
  0.166667 -0.166667 -0.333333      2.000000
  0.333333  0.500000  0.166667      2.000000
 -0.166667  0.166667 -0.333333      2.000000
 -0.333333  0.166667 -0.166667      2.000000
  0.166667  0.333333  0.500000      2.000000
 -0.333333  0.333333  0.166667      2.000000
  0.166667 -0.333333  0.333333      2.000000
  0.333333  0.166667 -0.333333      2.000000
 -0.333333  0.333333  0.500000      2.000000
  0.166667  0.500000 -0.166667      2.000000
  0.333333 -0.166667 -0.333333      2.000000
  0.500000 -0.333333  0.333333      2.000000
 -0.166667  0.166667  0.500000      2.000000
 -0.333333  0.333333 -0.166667      2.000000
  0.333333  0.500000 -0.333333      2.000000
  0.500000 -0.166667  0.166667      2.000000
 -0.166667 -0.333333  0.333333      2.000000
 -0.333333  0.500000  0.166667      2.000000
  0.166667 -0.333333  0.500000      2.000000
  0.500000  0.166667 -0.333333      2.000000
  0.500000  0.333333 -0.166667      2.000000
 -0.333333  0.166667  0.500000      2.000000
  0.166667  0.500000 -0.333333      2.000000
 
 Following cartesian coordinates:
            Coordinates               Weight
  0.000000  0.000000  0.000000      1.000000
  0.065315 -0.023093 -0.000000      2.000000
 -0.000000  0.069277 -0.000000      2.000000
 -0.032658 -0.023093  0.056564      2.000000
  0.032657  0.023092  0.056564      2.000000
  0.130630 -0.046185 -0.000000      2.000000
 -0.000000  0.138555 -0.000000      2.000000
 -0.065316 -0.046185  0.113129      2.000000
  0.065315  0.046184  0.113128      2.000000
  0.195945 -0.069278 -0.000000      1.000000
 -0.000000  0.207832 -0.000000      1.000000
 -0.097973 -0.069278  0.169693      1.000000
  0.097972  0.069277  0.169693      1.000000
  0.065315  0.046185 -0.000000      2.000000
 -0.032658  0.046185  0.056564      2.000000
  0.032657 -0.046185  0.056564      2.000000
  0.130630  0.023092 -0.000000      2.000000
 -0.032658  0.115462  0.056564      2.000000
 -0.000000 -0.069278  0.113129      2.000000
  0.097973  0.069277 -0.056565      2.000000
  0.065315 -0.023093  0.113129      2.000000
  0.065315  0.115462 -0.000000      2.000000
  0.097973 -0.069277 -0.056564      2.000000
  0.097972  0.069277  0.056564      2.000000
 -0.065316  0.023092  0.113129      2.000000
 -0.032657  0.115462 -0.056564      2.000000
 -0.000001  0.069277  0.113129      2.000000
  0.097973 -0.069278  0.056564      2.000000
  0.195945 -0.000000 -0.000000      2.000000
 -0.032658  0.184739  0.056564      2.000000
 -0.032658 -0.092370  0.169693      2.000000
  0.130631  0.092370 -0.113129      2.000000
  0.097972 -0.000001  0.169693      2.000000
  0.065315  0.184739 -0.000000      2.000000
  0.163288 -0.092370 -0.056565      2.000000
  0.130630  0.092369  0.113128      2.000000
 -0.097973 -0.000000  0.169693      2.000000
 -0.032658  0.184740 -0.056565      2.000000
  0.032657  0.092369  0.169693      2.000000
  0.163288 -0.092370  0.056564      2.000000
 -0.130630  0.115462  0.000000      2.000000
 -0.032658 -0.161647  0.056565      2.000000
  0.130631  0.023093 -0.113129      2.000000
 -0.032658 -0.023093  0.169693      2.000000
 -0.065315  0.300202 -0.113129      2.000000
  0.065315 -0.161647  0.000000      2.000000
  0.228603 -0.115462 -0.056565      2.000000
 -0.228604 -0.161647  0.169694      2.000000
  0.065316  0.115462 -0.113129      2.000000
 -0.032658  0.254017 -0.056565      2.000000
  0.261261 -0.161647 -0.113129      2.000000
 -0.163288  0.023092  0.056565      2.000000
 -0.065315  0.092370 -0.000000      2.000000
 -0.032658 -0.092370  0.056565      2.000000
  0.097973  0.000000 -0.056565      2.000000
 -0.000000 -0.000000  0.113129      2.000000
 -0.032657 -0.092369 -0.056564      2.000000
 -0.097972  0.000000 -0.056564      2.000000
  0.130630  0.092370 -0.000000      2.000000
 -0.065316  0.092369  0.113129      2.000000
  0.065315 -0.092370  0.113129      2.000000
  0.195945  0.069277 -0.000001      2.000000
 -0.065316  0.161647  0.113129      2.000000
  0.032657 -0.115463  0.169693      2.000000
  0.163288  0.115462 -0.056565      2.000000
  0.097972 -0.069278  0.169693      2.000000
  0.130630  0.161647 -0.000001      2.000000
  0.130631 -0.115462 -0.113129      2.000000
  0.163287  0.115462  0.056564      2.000000
 -0.097973  0.069277  0.169693      2.000000
 -0.065315  0.161647 -0.113129      2.000000
 -0.032658  0.115462  0.169693      2.000000
  0.130630 -0.115463  0.113129      2.000000
 -0.130630  0.184740 -0.000000      2.000000
 -0.065315 -0.184740  0.113129      2.000000
  0.195946  0.000000 -0.113129      2.000000
  0.195946  0.138555 -0.113129      2.000000
 -0.065315  0.230925 -0.113129      2.000000
  0.195946 -0.138554 -0.113129      2.000000
  0.195945  0.138554 -0.000001      1.000000
 -0.097974  0.138554  0.169693      1.000000
  0.097972 -0.138555  0.169693      1.000000
  0.163288  0.046184  0.056564      2.000000
 -0.000001  0.138554  0.113128      2.000000
  0.032657 -0.046185  0.169693      2.000000
  0.163288  0.046185 -0.056565      2.000000
  0.130630 -0.046185  0.113128      2.000000
  0.097973 -0.138554 -0.056564      2.000000
  0.097973  0.138555 -0.056565      2.000000
  0.130631 -0.046185 -0.113129      2.000000
  0.097972  0.138554  0.056564      2.000000
  0.000000  0.138555 -0.113129      2.000000
 -0.097973  0.138555 -0.056564      2.000000
 -0.032658  0.046184  0.169693      2.000000
 -0.163288  0.161647  0.056564      2.000000
 -0.000000 -0.207832  0.113129      2.000000
  0.195946  0.069277 -0.113129      2.000000
 -0.228604  0.115462  0.169693      2.000000
  0.097973  0.207832 -0.056565      2.000000
  0.195946 -0.069277 -0.113129      2.000000
  0.130630 -0.254017  0.113129      2.000000
 -0.163289  0.023092  0.169693      2.000000
 -0.097973  0.207832 -0.056564      2.000000
  0.195946  0.207832 -0.113130      2.000000
  0.163288 -0.161647  0.056564      2.000000
 -0.130631 -0.161647  0.113129      2.000000
 -0.163288  0.230924  0.056564      2.000000
 -0.032658 -0.230925  0.169694      2.000000
  0.261261  0.046185 -0.113129      2.000000
  0.228603  0.092370 -0.056565      2.000000
 -0.228604  0.046185  0.169694      2.000000
  0.130631  0.230924 -0.113129      2.000000
 


--------------------------------------------------------------------------------------------------------




 Dimension of arrays:
   k-points           NKPTS =    112   k-points in BZ     NKDIM =    112   number of bands    NBANDS=     12
   number of dos      NEDOS =    301   number of ions     NIONS =      1
   non local maximal  LDIM  =      6   non local SUM 2l+1 LMDIM =     18
   total plane-waves  NPLWV =   4096
   max r-space proj   IRMAX =      1   max aug-charges    IRDMAX=  13913
   dimension x,y,z NGX =    16 NGY =   16 NGZ =   16
   dimension x,y,z NGXF=    32 NGYF=   32 NGZF=   32
   support grid    NGXF=    32 NGYF=   32 NGZF=   32
   ions per type =               1
   NGX,Y,Z   is equivalent  to a cutoff of   9.03,  9.03,  9.03 a.u.
   NGXF,Y,Z  is equivalent  to a cutoff of  18.05, 18.05, 18.05 a.u.

 SYSTEM =  unknown system                          
 POSCAR =  Pt1                                     

 Startparameter for this run:
   NWRITE =      2    write-flag & timer
   PREC   = normal    normal or accurate (medium, high low for compatibility)
   ISTART =      0    job   : 0-new  1-cont  2-samecut
   ICHARG =      2    charge: 1-file 2-atom 10-const
   ISPIN  =      1    spin polarized calculation?
   LNONCOLLINEAR =      F non collinear calculations
   LSORBIT =      F    spin-orbit coupling
   INIWAV =      1    electr: 0-lowe 1-rand  2-diag
   LASPH  =      F    aspherical Exc in radial PAW
   METAGGA=      F    non-selfconsistent MetaGGA calc.

 Electronic Relaxation 1
   ENCUT  =  420.0 eV  30.87 Ry    5.56 a.u.   4.92  4.92  4.92*2*pi/ulx,y,z
   ENINI  =  420.0     initial cutoff
   ENAUG  =  359.0 eV  augmentation charge cutoff
   NELM   =     60;   NELMIN=  4; NELMDL= -5     # of ELM steps 
   EDIFF  = 0.1E-03   stopping-criterion for ELM
   LREAL  =      F    real-space projection
   NLSPLINE    = F    spline interpolate recip. space projectors
   LCOMPAT=      F    compatible to vasp.4.4
   GGA_COMPAT  = T    GGA compatible to vasp.4.4-vasp.4.6
   LMAXPAW     = -100 max onsite density
   LMAXMIX     =    2 max onsite mixed and CHGCAR
   VOSKOWN=      0    Vosko Wilk Nusair interpolation
   ROPT   =    0.00000
 Ionic relaxation
   EDIFFG = -.3E-01   stopping-criterion for IOM
   NSW    =      0    number of steps for IOM
   NBLOCK =      1;   KBLOCK =      1    inner block; outer block 
   IBRION =     -1    ionic relax: 0-MD 1-quasi-New 2-CG
   NFREE  =      1    steps in history (QN), initial steepest desc. (CG)
   ISIF   =      0    stress and relaxation
   IWAVPR =     10    prediction:  0-non 1-charg 2-wave 3-comb
   ISYM   =      0    0-nonsym 1-usesym 2-fastsym
   LCORR  =      T    Harris-Foulkes like correction to forces

   POTIM  = 0.5000    time-step for ionic-motion
   TEIN   =    0.0    initial temperature
   TEBEG  =    0.0;   TEEND  =   0.0 temperature during run
   SMASS  =  -3.00    Nose mass-parameter (am)
   estimated Nose-frequenzy (Omega)   =  0.10E-29 period in steps = 0.13E+47 mass=  -0.198E-27a.u.
   SCALEE = 1.0000    scale energy and forces
   NPACO  =    256;   APACO  = 16.0  distance and # of slots for P.C.
   PSTRESS=    0.0 pullay stress

  Mass of Ions in am
   POMASS = 195.08
  Ionic Valenz
   ZVAL   =  10.00
  Atomic Wigner-Seitz radii
   RWIGS  =  -1.00
  virtual crystal weights 
   VCA    =   1.00
   NELECT =      10.0000    total number of electrons
   NUPDOWN=      -1.0000    fix difference up-down

 DOS related values:
   EMIN   =  10.00;   EMAX   =-10.00  energy-range for DOS
   EFERMI =   0.00
   ISMEAR =     0;   SIGMA  =   0.05  broadening in eV -4-tet -1-fermi 0-gaus

 Electronic relaxation 2 (details)
   IALGO  =     38    algorithm
   LDIAG  =      T    sub-space diagonalisation (order eigenvalues)
   LSUBROT=      F    optimize rotation matrix (better conditioning)
   TURBO    =      0    0=normal 1=particle mesh
   IRESTART =      0    0=no restart 2=restart with 2 vectors
   NREBOOT  =      0    no. of reboots
   NMIN     =      0    reboot dimension
   EREF     =   0.00    reference energy to select bands
   IMIX   =      4    mixing-type and parameters
     AMIX     =   0.40;   BMIX     =  1.00
     AMIX_MAG =   1.60;   BMIX_MAG =  1.00
     AMIN     =   0.10
     WC   =   100.;   INIMIX=   1;  MIXPRE=   1;  MAXMIX= -45

 Intra band minimization:
   WEIMIN = 0.0000     energy-eigenvalue tresh-hold
   EBREAK =  0.21E-05  absolut break condition
   DEPER  =   0.30     relativ break condition  

   TIME   =   0.40     timestep for ELM

  volume/ion in A,a.u.               =      18.09       122.07
  Fermi-wavevector in a.u.,A,eV,Ry     =   1.343616  2.539066 24.562657  1.805304
  Thomas-Fermi vector in A             =   2.471676
 
 Write flags
   LWAVE        =      F    write WAVECAR
   LDOWNSAMPLE  =      F    k-point downsampling of WAVECAR
   LCHARG       =      T    write CHGCAR
   LVTOT        =      F    write LOCPOT, total local potential
   LVHAR        =      F    write LOCPOT, Hartree potential only
   LELF         =      F    write electronic localiz. function (ELF)
   LORBIT       =     11    0 simple, 1 ext, 2 COOP (PROOUT), +10 PAW based schemes


 Dipole corrections
   LMONO  =      F    monopole corrections only (constant potential shift)
   LDIPOL =      F    correct potential (dipole corrections)
   IDIPOL =      0    1-x, 2-y, 3-z, 4-all directions 
   EPSILON=  1.0000000 bulk dielectric constant

 Exchange correlation treatment:
   GGA     =    RP    GGA type
   LEXCH   =     9    internal setting for exchange type
   VOSKOWN=      0    Vosko Wilk Nusair interpolation
   LHFCALC =     F    Hartree Fock is set to
   LHFONE  =     F    Hartree Fock one center treatment
   AEXX    =    0.0000 exact exchange contribution

 Linear response parameters
   LEPSILON=     F    determine dielectric tensor
   LRPA    =     F    only Hartree local field effects (RPA)
   LNABLA  =     F    use nabla operator in PAW spheres
   LVEL    =     F    velocity operator in full k-point grid
   LINTERFAST=   F  fast interpolation
   KINTER  =     0    interpolate to denser k-point grid
   CSHIFT  =0.1000    complex shift for real part using Kramers Kronig
   OMEGAMAX=  -1.0    maximum frequency
   DEG_THRESHOLD= 0.2000000E-02 threshold for treating states as degnerate
   RTIME   =   -0.100 relaxation time in fs
  (WPLASMAI=    0.000 imaginary part of plasma frequency in eV, 0.658/RTIME)
   DFIELD  = 0.0000000 0.0000000 0.0000000 field for delta impulse in time
 
 Orbital magnetization related:
   ORBITALMAG=     F  switch on orbital magnetization
   LCHIMAG   =     F  perturbation theory with respect to B field
   DQ        =  0.001000  dq finite difference perturbation B field
   LLRAUG    =     F  two centre corrections for induced B field



--------------------------------------------------------------------------------------------------------


 Static calculation
 charge density and potential will be updated during run
 non-spin polarized calculation
 Variant of blocked Davidson
 Davidson routine will perform the subspace rotation
 perform sub-space diagonalisation
    after iterative eigenvector-optimisation
 modified Broyden-mixing scheme, WC =      100.0
 initial mixing is a Kerker type mixing with AMIX =  0.4000 and BMIX =      1.0000
 Hartree-type preconditioning will be used
 using additional bands             7
 reciprocal scheme for non local part
 use partial core corrections
 calculate Harris-corrections to forces 
   (improved forces if not selfconsistent)
 use gradient corrections 
 use of overlap-Matrix (Vanderbilt PP)
 Gauss-broadening in eV      SIGMA  =   0.05


--------------------------------------------------------------------------------------------------------


  energy-cutoff  :      420.00
  volume of cell :       18.09
      direct lattice vectors                 reciprocal lattice vectors
     2.551735000  0.000005000  1.473259000     0.391890897 -0.138555073 -0.000000696
     0.850584000  2.405795000  1.473259000    -0.000000407  0.415663590 -0.000000705
     0.000007000  0.000005000  2.946496000    -0.195946708 -0.138555293  0.339386873

  length of vectors
     2.946496834  2.946495343  2.946496000     0.415663305  0.415663590  0.415663483


 
 k-points in units of 2pi/SCALE and weight: read from INCAR                         
   0.00000000  0.00000000  0.00000000       0.005
   0.06531515 -0.02309251 -0.00000012       0.009
  -0.00000007  0.06927726 -0.00000012       0.009
  -0.03265778 -0.02309255  0.05656448       0.009
   0.03265730  0.02309220  0.05656425       0.009
   0.13063030 -0.04618502 -0.00000023       0.009
  -0.00000014  0.13855453 -0.00000024       0.009
  -0.06531557 -0.04618510  0.11312896       0.009
   0.06531459  0.04618441  0.11312849       0.009
   0.19594545 -0.06927754 -0.00000035       0.005
  -0.00000020  0.20783179 -0.00000035       0.005
  -0.09797335 -0.06927765  0.16969344       0.005
   0.09797189  0.06927661  0.16969274       0.005
   0.06531508  0.04618475 -0.00000023       0.009
  -0.03265785  0.04618472  0.05656436       0.009
   0.03265736 -0.04618506  0.05656436       0.009
   0.13063023  0.02309224 -0.00000035       0.009
  -0.03265792  0.11546198  0.05656424       0.009
  -0.00000042 -0.06927761  0.11312884       0.009
   0.09797287  0.06927730 -0.05656471       0.009
   0.06531466 -0.02309286  0.11312861       0.009
   0.06531501  0.11546202 -0.00000035       0.009
   0.09797300 -0.06927723 -0.05656448       0.009
   0.09797238  0.06927696  0.05656401       0.009
  -0.06531564  0.02309217  0.11312884       0.009
  -0.03265743  0.11546233 -0.05656448       0.009
  -0.00000056  0.06927692  0.11312861       0.009
   0.09797251 -0.06927757  0.05656425       0.009
   0.19594538 -0.00000027 -0.00000047       0.009
  -0.03265799  0.18473925  0.05656413       0.009
  -0.03265820 -0.09237016  0.16969332       0.009
   0.13063065  0.09236985 -0.11312919       0.009
   0.09797196 -0.00000065  0.16969285       0.009
   0.06531495  0.18473928 -0.00000047       0.009
   0.16328815 -0.09236974 -0.05656459       0.009
   0.13062968  0.09236916  0.11312826       0.009
  -0.09797342 -0.00000038  0.16969332       0.009
  -0.03265750  0.18473959 -0.05656460       0.009
   0.03265674  0.09236912  0.16969285       0.009
   0.16328766 -0.09237009  0.05656413       0.009
  -0.13063037  0.11546229  0.00000011       0.009
  -0.03265765 -0.16164708  0.05656471       0.009
   0.13063072  0.02309259 -0.11312907       0.009
  -0.03265827 -0.02309289  0.16969320       0.009
  -0.06531493  0.30020192 -0.11312908       0.009
   0.06531529 -0.16164704  0.00000012       0.009
   0.22860330 -0.11546225 -0.05656471       0.009
  -0.22860352 -0.16164715  0.16969390       0.009
   0.06531550  0.11546236 -0.11312908       0.009
  -0.03265757  0.25401686 -0.05656472       0.009
   0.26126115 -0.16164697 -0.11312907       0.009
  -0.16328808  0.02309248  0.05656471       0.009
  -0.06531522  0.09236978 -0.00000000       0.009
  -0.03265772 -0.09236981  0.05656460       0.009
   0.09797293  0.00000004 -0.05656459       0.009
  -0.00000049 -0.00000034  0.11312872       0.009
  -0.03265723 -0.09236947 -0.05656413       0.009
  -0.09797245  0.00000031 -0.05656413       0.009
   0.13063016  0.09236951 -0.00000047       0.009
  -0.06531571  0.09236943  0.11312872       0.009
   0.06531473 -0.09237012  0.11312873       0.009
   0.19594531  0.06927699 -0.00000058       0.009
  -0.06531577  0.16164670  0.11312861       0.009
   0.03265695 -0.11546267  0.16969320       0.009
   0.16328795  0.11546205 -0.05656495       0.009
   0.09797203 -0.06927792  0.16969297       0.009
   0.13063010  0.16164677 -0.00000058       0.009
   0.13063085 -0.11546194 -0.11312884       0.009
   0.16328746  0.11546171  0.05656378       0.009
  -0.09797349  0.06927688  0.16969320       0.009
  -0.06531480  0.16164739 -0.11312884       0.009
  -0.03265841  0.11546164  0.16969297       0.009
   0.13062988 -0.11546263  0.11312861       0.009
  -0.13063043  0.18473955 -0.00000000       0.009
  -0.06531543 -0.18473963  0.11312919       0.009
   0.19594587  0.00000007 -0.11312919       0.009
   0.19594573  0.13855460 -0.11312942       0.009
  -0.06531487  0.23092465 -0.11312896       0.009
   0.19594600 -0.13855446 -0.11312895       0.009
   0.19594524  0.13855426 -0.00000070       0.005
  -0.09797356  0.13855415  0.16969308       0.005
   0.09797209 -0.13855518  0.16969309       0.005
   0.16328753  0.04618444  0.05656390       0.009
  -0.00000062  0.13855419  0.11312849       0.009
   0.03265688 -0.04618541  0.16969309       0.009
   0.16328802  0.04618479 -0.05656483       0.009
   0.13062981 -0.04618537  0.11312849       0.009
   0.09797307 -0.13855449 -0.05656436       0.009
   0.09797280  0.13855457 -0.05656483       0.009
   0.13063079 -0.04618468 -0.11312896       0.009
   0.09797231  0.13855422  0.05656389       0.009
   0.00000035  0.13855487 -0.11312896       0.009
  -0.09797258  0.13855484 -0.05656436       0.009
  -0.03265834  0.04618437  0.16969309       0.009
  -0.16328822  0.16164701  0.05656448       0.009
  -0.00000028 -0.20783214  0.11312908       0.009
   0.19594580  0.06927734 -0.11312931       0.009
  -0.22860379  0.11546191  0.16969343       0.009
   0.09797273  0.20783183 -0.05656495       0.009
   0.19594594 -0.06927719 -0.11312907       0.009
   0.13063001 -0.25401716  0.11312884       0.009
  -0.16328857  0.02309213  0.16969344       0.009
  -0.09797265  0.20783210 -0.05656448       0.009
   0.19594566  0.20783187 -0.11312954       0.009
   0.16328773 -0.16164735  0.05656425       0.009
  -0.13063058 -0.16164712  0.11312931       0.009
  -0.16328829  0.23092427  0.05656436       0.009
  -0.03265807 -0.23092469  0.16969356       0.009
   0.26126095  0.04618483 -0.11312942       0.009
   0.22860310  0.09236954 -0.05656506       0.009
  -0.22860372  0.04618464  0.16969355       0.009
   0.13063052  0.23092438 -0.11312943       0.009
 
 k-points in reciprocal lattice and weights: read from INCAR                         
   0.00000000  0.00000000  0.00000000       0.005
   0.16666667  0.00000000  0.00000000       0.009
   0.00000000  0.16666667  0.00000000       0.009
   0.00000000  0.00000000  0.16666667       0.009
   0.16666667  0.16666667  0.16666667       0.009
   0.33333333  0.00000000  0.00000000       0.009
   0.00000000  0.33333333  0.00000000       0.009
   0.00000000  0.00000000  0.33333333       0.009
   0.33333333  0.33333333  0.33333333       0.009
   0.50000000  0.00000000  0.00000000       0.005
   0.00000000  0.50000000  0.00000000       0.005
   0.00000000  0.00000000  0.50000000       0.005
   0.50000000  0.50000000  0.50000000       0.005
   0.16666667  0.16666667  0.00000000       0.009
   0.00000000  0.16666667  0.16666667       0.009
   0.16666667  0.00000000  0.16666667       0.009
   0.33333333  0.16666667  0.00000000       0.009
   0.00000000  0.33333333  0.16666667       0.009
   0.16666667  0.00000000  0.33333333       0.009
   0.16666667  0.16666667 -0.16666667       0.009
   0.33333333  0.16666667  0.33333333       0.009
   0.16666667  0.33333333  0.00000000       0.009
   0.16666667 -0.16666667 -0.16666667       0.009
   0.33333333  0.33333333  0.16666667       0.009
   0.00000000  0.16666667  0.33333333       0.009
  -0.16666667  0.16666667 -0.16666667       0.009
   0.16666667  0.33333333  0.33333333       0.009
   0.33333333  0.00000000  0.16666667       0.009
   0.50000000  0.16666667  0.00000000       0.009
   0.00000000  0.50000000  0.16666667       0.009
   0.16666667  0.00000000  0.50000000       0.009
   0.16666667  0.16666667 -0.33333333       0.009
   0.50000000  0.33333333  0.50000000       0.009
   0.16666667  0.50000000  0.00000000       0.009
   0.33333333 -0.16666667 -0.16666667       0.009
   0.50000000  0.50000000  0.33333333       0.009
   0.00000000  0.16666667  0.50000000       0.009
  -0.16666667  0.33333333 -0.16666667       0.009
   0.33333333  0.50000000  0.50000000       0.009
   0.50000000  0.00000000  0.16666667       0.009
  -0.33333333  0.16666667  0.00000000       0.009
   0.00000000 -0.33333333  0.16666667       0.009
   0.16666667  0.00000000 -0.33333333       0.009
   0.16666667  0.16666667  0.50000000       0.009
  -0.33333333  0.50000000 -0.33333333       0.009
   0.16666667 -0.33333333  0.00000000       0.009
   0.50000000 -0.16666667 -0.16666667       0.009
  -0.33333333 -0.33333333  0.50000000       0.009
   0.00000000  0.16666667 -0.33333333       0.009
  -0.16666667  0.50000000 -0.16666667       0.009
   0.50000000 -0.33333333 -0.33333333       0.009
  -0.33333333  0.00000000  0.16666667       0.009
  -0.16666667  0.16666667  0.00000000       0.009
   0.00000000 -0.16666667  0.16666667       0.009
   0.16666667  0.00000000 -0.16666667       0.009
   0.16666667  0.16666667  0.33333333       0.009
  -0.16666667 -0.33333333 -0.16666667       0.009
  -0.33333333 -0.16666667 -0.16666667       0.009
   0.33333333  0.33333333  0.00000000       0.009
   0.00000000  0.33333333  0.33333333       0.009
   0.33333333  0.00000000  0.33333333       0.009
   0.50000000  0.33333333  0.00000000       0.009
   0.00000000  0.50000000  0.33333333       0.009
   0.33333333  0.00000000  0.50000000       0.009
   0.33333333  0.33333333 -0.16666667       0.009
   0.50000000  0.16666667  0.50000000       0.009
   0.33333333  0.50000000  0.00000000       0.009
   0.16666667 -0.33333333 -0.33333333       0.009
   0.50000000  0.50000000  0.16666667       0.009
   0.00000000  0.33333333  0.50000000       0.009
  -0.33333333  0.16666667 -0.33333333       0.009
   0.16666667  0.50000000  0.50000000       0.009
   0.50000000  0.00000000  0.33333333       0.009
  -0.33333333  0.33333333  0.00000000       0.009
   0.00000000 -0.33333333  0.33333333       0.009
   0.33333333  0.00000000 -0.33333333       0.009
   0.33333333  0.33333333 -0.33333333       0.009
  -0.33333333  0.33333333 -0.33333333       0.009
   0.33333333 -0.33333333 -0.33333333       0.009
   0.50000000  0.50000000  0.00000000       0.005
   0.00000000  0.50000000  0.50000000       0.005
   0.50000000  0.00000000  0.50000000       0.005
   0.50000000  0.33333333  0.16666667       0.009
   0.16666667  0.50000000  0.33333333       0.009
   0.33333333  0.16666667  0.50000000       0.009
   0.33333333  0.16666667 -0.16666667       0.009
   0.50000000  0.16666667  0.33333333       0.009
   0.16666667 -0.33333333 -0.16666667       0.009
   0.16666667  0.33333333 -0.16666667       0.009
   0.16666667 -0.16666667 -0.33333333       0.009
   0.33333333  0.50000000  0.16666667       0.009
  -0.16666667  0.16666667 -0.33333333       0.009
  -0.33333333  0.16666667 -0.16666667       0.009
   0.16666667  0.33333333  0.50000000       0.009
  -0.33333333  0.33333333  0.16666667       0.009
   0.16666667 -0.33333333  0.33333333       0.009
   0.33333333  0.16666667 -0.33333333       0.009
  -0.33333333  0.33333333  0.50000000       0.009
   0.16666667  0.50000000 -0.16666667       0.009
   0.33333333 -0.16666667 -0.33333333       0.009
   0.50000000 -0.33333333  0.33333333       0.009
  -0.16666667  0.16666667  0.50000000       0.009
  -0.33333333  0.33333333 -0.16666667       0.009
   0.33333333  0.50000000 -0.33333333       0.009
   0.50000000 -0.16666667  0.16666667       0.009
  -0.16666667 -0.33333333  0.33333333       0.009
  -0.33333333  0.50000000  0.16666667       0.009
   0.16666667 -0.33333333  0.50000000       0.009
   0.50000000  0.16666667 -0.33333333       0.009
   0.50000000  0.33333333 -0.16666667       0.009
  -0.33333333  0.16666667  0.50000000       0.009
   0.16666667  0.50000000 -0.33333333       0.009
 
 position of ions in fractional coordinates (direct lattice) 
   0.00000000  0.00000000  0.00000000
 
 position of ions in cartesian coordinates  (Angst):
   0.00000000  0.00000000  0.00000000
 


--------------------------------------------------------------------------------------------------------


 k-point   1 :   0.0000 0.0000 0.0000  plane waves:     339
 k-point   2 :   0.1667 0.0000 0.0000  plane waves:     344
 k-point   3 :   0.0000 0.1667 0.0000  plane waves:     344
 k-point   4 :   0.0000 0.0000 0.1667  plane waves:     344
 k-point   5 :   0.1667 0.1667 0.1667  plane waves:     344
 k-point   6 :   0.3333 0.0000 0.0000  plane waves:     359
 k-point   7 :   0.0000 0.3333 0.0000  plane waves:     359
 k-point   8 :   0.0000 0.0000 0.3333  plane waves:     359
 k-point   9 :   0.3333 0.3333 0.3333  plane waves:     359
 k-point  10 :   0.5000 0.0000 0.0000  plane waves:     344
 k-point  11 :   0.0000 0.5000 0.0000  plane waves:     344
 k-point  12 :   0.0000 0.0000 0.5000  plane waves:     344
 k-point  13 :   0.5000 0.5000 0.5000  plane waves:     344
 k-point  14 :   0.1667 0.1667 0.0000  plane waves:     351
 k-point  15 :   0.0000 0.1667 0.1667  plane waves:     351
 k-point  16 :   0.1667 0.0000 0.1667  plane waves:     351
 k-point  17 :   0.3333 0.1667 0.0000  plane waves:     351
 k-point  18 :   0.0000 0.3333 0.1667  plane waves:     351
 k-point  19 :   0.1667 0.0000 0.3333  plane waves:     351
 k-point  20 :   0.1667 0.1667-0.1667  plane waves:     351
 k-point  21 :   0.3333 0.1667 0.3333  plane waves:     351
 k-point  22 :   0.1667 0.3333 0.0000  plane waves:     351
 k-point  23 :   0.1667-0.1667-0.1667  plane waves:     351
 k-point  24 :   0.3333 0.3333 0.1667  plane waves:     351
 k-point  25 :   0.0000 0.1667 0.3333  plane waves:     351
 k-point  26 :  -0.1667 0.1667-0.1667  plane waves:     351
 k-point  27 :   0.1667 0.3333 0.3333  plane waves:     351
 k-point  28 :   0.3333 0.0000 0.1667  plane waves:     351
 k-point  29 :   0.5000 0.1667 0.0000  plane waves:     355
 k-point  30 :   0.0000 0.5000 0.1667  plane waves:     355
 k-point  31 :   0.1667 0.0000 0.5000  plane waves:     355
 k-point  32 :   0.1667 0.1667-0.3333  plane waves:     355
 k-point  33 :   0.5000 0.3333 0.5000  plane waves:     355
 k-point  34 :   0.1667 0.5000 0.0000  plane waves:     355
 k-point  35 :   0.3333-0.1667-0.1667  plane waves:     355
 k-point  36 :   0.5000 0.5000 0.3333  plane waves:     355
 k-point  37 :   0.0000 0.1667 0.5000  plane waves:     355
 k-point  38 :  -0.1667 0.3333-0.1667  plane waves:     355
 k-point  39 :   0.3333 0.5000 0.5000  plane waves:     355
 k-point  40 :   0.5000 0.0000 0.1667  plane waves:     355
 k-point  41 :  -0.3333 0.1667 0.0000  plane waves:     352
 k-point  42 :   0.0000-0.3333 0.1667  plane waves:     352
 k-point  43 :   0.1667 0.0000-0.3333  plane waves:     352
 k-point  44 :   0.1667 0.1667 0.5000  plane waves:     352
 k-point  45 :  -0.3333 0.5000-0.3333  plane waves:     352
 k-point  46 :   0.1667-0.3333 0.0000  plane waves:     352
 k-point  47 :   0.5000-0.1667-0.1667  plane waves:     352
 k-point  48 :  -0.3333-0.3333 0.5000  plane waves:     352
 k-point  49 :   0.0000 0.1667-0.3333  plane waves:     352
 k-point  50 :  -0.1667 0.5000-0.1667  plane waves:     352
 k-point  51 :   0.5000-0.3333-0.3333  plane waves:     352
 k-point  52 :  -0.3333 0.0000 0.1667  plane waves:     352
 k-point  53 :  -0.1667 0.1667 0.0000  plane waves:     349
 k-point  54 :   0.0000-0.1667 0.1667  plane waves:     349
 k-point  55 :   0.1667 0.0000-0.1667  plane waves:     349
 k-point  56 :   0.1667 0.1667 0.3333  plane waves:     349
 k-point  57 :  -0.1667-0.3333-0.1667  plane waves:     349
 k-point  58 :  -0.3333-0.1667-0.1667  plane waves:     349
 k-point  59 :   0.3333 0.3333 0.0000  plane waves:     355
 k-point  60 :   0.0000 0.3333 0.3333  plane waves:     355
 k-point  61 :   0.3333 0.0000 0.3333  plane waves:     355
 k-point  62 :   0.5000 0.3333 0.0000  plane waves:     352
 k-point  63 :   0.0000 0.5000 0.3333  plane waves:     352
 k-point  64 :   0.3333 0.0000 0.5000  plane waves:     352
 k-point  65 :   0.3333 0.3333-0.1667  plane waves:     352
 k-point  66 :   0.5000 0.1667 0.5000  plane waves:     352
 k-point  67 :   0.3333 0.5000 0.0000  plane waves:     352
 k-point  68 :   0.1667-0.3333-0.3333  plane waves:     352
 k-point  69 :   0.5000 0.5000 0.1667  plane waves:     352
 k-point  70 :   0.0000 0.3333 0.5000  plane waves:     352
 k-point  71 :  -0.3333 0.1667-0.3333  plane waves:     352
 k-point  72 :   0.1667 0.5000 0.5000  plane waves:     352
 k-point  73 :   0.5000 0.0000 0.3333  plane waves:     352
 k-point  74 :  -0.3333 0.3333 0.0000  plane waves:     353
 k-point  75 :   0.0000-0.3333 0.3333  plane waves:     353
 k-point  76 :   0.3333 0.0000-0.3333  plane waves:     353
 k-point  77 :   0.3333 0.3333-0.3333  plane waves:     353
 k-point  78 :  -0.3333 0.3333-0.3333  plane waves:     353
 k-point  79 :   0.3333-0.3333-0.3333  plane waves:     353
 k-point  80 :   0.5000 0.5000 0.0000  plane waves:     342
 k-point  81 :   0.0000 0.5000 0.5000  plane waves:     342
 k-point  82 :   0.5000 0.0000 0.5000  plane waves:     342
 k-point  83 :   0.5000 0.3333 0.1667  plane waves:     351
 k-point  84 :   0.1667 0.5000 0.3333  plane waves:     351
 k-point  85 :   0.3333 0.1667 0.5000  plane waves:     351
 k-point  86 :   0.3333 0.1667-0.1667  plane waves:     351
 k-point  87 :   0.5000 0.1667 0.3333  plane waves:     351
 k-point  88 :   0.1667-0.3333-0.1667  plane waves:     351
 k-point  89 :   0.1667 0.3333-0.1667  plane waves:     351
 k-point  90 :   0.1667-0.1667-0.3333  plane waves:     351
 k-point  91 :   0.3333 0.5000 0.1667  plane waves:     351
 k-point  92 :  -0.1667 0.1667-0.3333  plane waves:     351
 k-point  93 :  -0.3333 0.1667-0.1667  plane waves:     351
 k-point  94 :   0.1667 0.3333 0.5000  plane waves:     351
 k-point  95 :  -0.3333 0.3333 0.1667  plane waves:     366
 k-point  96 :   0.1667-0.3333 0.3333  plane waves:     366
 k-point  97 :   0.3333 0.1667-0.3333  plane waves:     366
 k-point  98 :  -0.3333 0.3333 0.5000  plane waves:     366
 k-point  99 :   0.1667 0.5000-0.1667  plane waves:     366
 k-point 100 :   0.3333-0.1667-0.3333  plane waves:     366
 k-point 101 :   0.5000-0.3333 0.3333  plane waves:     366
 k-point 102 :  -0.1667 0.1667 0.5000  plane waves:     366
 k-point 103 :  -0.3333 0.3333-0.1667  plane waves:     366
 k-point 104 :   0.3333 0.5000-0.3333  plane waves:     366
 k-point 105 :   0.5000-0.1667 0.1667  plane waves:     366
 k-point 106 :  -0.1667-0.3333 0.3333  plane waves:     366
 k-point 107 :  -0.3333 0.5000 0.1667  plane waves:     360
 k-point 108 :   0.1667-0.3333 0.5000  plane waves:     360
 k-point 109 :   0.5000 0.1667-0.3333  plane waves:     360
 k-point 110 :   0.5000 0.3333-0.1667  plane waves:     360
 k-point 111 :  -0.3333 0.1667 0.5000  plane waves:     360
 k-point 112 :   0.1667 0.5000-0.3333  plane waves:     360

 maximum and minimum number of plane-waves per node :        99       75

 maximum number of plane-waves:       366
 maximum index in each direction: 
   IXMAX=    5   IYMAX=    5   IZMAX=    5
   IXMIN=   -5   IYMIN=   -5   IZMIN=   -5


 parallel 3D FFT for wavefunctions:
    minimum data exchange during FFTs selected (reduces bandwidth)
 parallel 3D FFT for charge:
    minimum data exchange during FFTs selected (reduces bandwidth)


 total amount of memory used by VASP MPI-rank0    32524. kBytes
=======================================================================

   base      :      30000. kBytes
   nonl-proj :       1614. kBytes
   fftplans  :        106. kBytes
   grid      :        144. kBytes
   one-center:         15. kBytes
   wavefun   :        645. kBytes
 
     INWAV:  cpu time    0.0000: real time    0.0000
 Broyden mixing: mesh for mixing (old mesh)
   NGX =  9   NGY =  9   NGZ =  9
  (NGX  = 32   NGY  = 32   NGZ  = 32)
  gives a total of    729 points

 initial charge density was supplied:
 charge density of overlapping atoms calculated
 number of electron      10.0000000 magnetization 
 keeping initial charge density in first step


--------------------------------------------------------------------------------------------------------


 Maximum index for augmentation-charges           631 (set IRDMAX)


--------------------------------------------------------------------------------------------------------


 First call to EWALD:  gamma=   0.675
 Maximum number of real-space cells 3x 3x 3
 Maximum number of reciprocal cells 3x 3x 3

    FEWALD:  cpu time    0.0009: real time    0.0009


--------------------------------------- Iteration      1(   1)  ---------------------------------------


    POTLOK:  cpu time    0.0047: real time    0.0047
    SETDIJ:  cpu time    0.0051: real time    0.0051
     EDDAV:  cpu time    0.4430: real time    0.4440
       DOS:  cpu time    0.0014: real time    0.0014
    --------------------------------------------
      LOOP:  cpu time    0.4541: real time    0.4552

 eigenvalue-minimisations  :  2824
 total energy-change (2. order) : 0.3398763E+02  (-0.4523734E+03)
 number of electron      10.0000000 magnetization 
 augmentation part       10.0000000 magnetization 

 Free energy of the ion-electron system (eV)
  ---------------------------------------------------
  alpha Z        PSCENC =        52.55221741
  Ewald energy   TEWEN  =      -792.19617298
  -Hartree energ DENC   =       -88.32847720
  -exchange      EXHF   =         0.00000000
  -V(xc)+E(xc)   XCENC  =         2.78239656
  PAW double counting   =       696.70595042     -667.45827301
  entropy T*S    EENTRO =        -0.00085916
  eigenvalues    EBANDS =       101.61163829
  atomic energy  EATOM  =       728.31920932
  Solvation  Ediel_sol  =         0.00000000
  ---------------------------------------------------
  free energy    TOTEN  =        33.98762965 eV

  energy without entropy =       33.98848881  energy(sigma->0) =       33.98805923


--------------------------------------------------------------------------------------------------------




--------------------------------------- Iteration      1(   2)  ---------------------------------------


     EDDAV:  cpu time    0.4698: real time    0.4735
       DOS:  cpu time    0.0016: real time    0.0016
    --------------------------------------------
      LOOP:  cpu time    0.4714: real time    0.4750

 eigenvalue-minimisations  :  3204
 total energy-change (2. order) :-0.3917519E+02  (-0.3707920E+02)
 number of electron      10.0000000 magnetization 
 augmentation part       10.0000000 magnetization 

 Free energy of the ion-electron system (eV)
  ---------------------------------------------------
  alpha Z        PSCENC =        52.55221741
  Ewald energy   TEWEN  =      -792.19617298
  -Hartree energ DENC   =       -88.32847720
  -exchange      EXHF   =         0.00000000
  -V(xc)+E(xc)   XCENC  =         2.78239656
  PAW double counting   =       696.70595042     -667.45827301
  entropy T*S    EENTRO =        -0.00228509
  eigenvalues    EBANDS =        62.43787281
  atomic energy  EATOM  =       728.31920932
  Solvation  Ediel_sol  =         0.00000000
  ---------------------------------------------------
  free energy    TOTEN  =        -5.18756176 eV

  energy without entropy =       -5.18527666  energy(sigma->0) =       -5.18641921


--------------------------------------------------------------------------------------------------------




--------------------------------------- Iteration      1(   3)  ---------------------------------------


     EDDAV:  cpu time    0.4903: real time    0.4940
       DOS:  cpu time    0.0016: real time    0.0016
    --------------------------------------------
      LOOP:  cpu time    0.4920: real time    0.4956

 eigenvalue-minimisations  :  3228
 total energy-change (2. order) :-0.5186827E+00  (-0.5172486E+00)
 number of electron      10.0000000 magnetization 
 augmentation part       10.0000000 magnetization 

 Free energy of the ion-electron system (eV)
  ---------------------------------------------------
  alpha Z        PSCENC =        52.55221741
  Ewald energy   TEWEN  =      -792.19617298
  -Hartree energ DENC   =       -88.32847720
  -exchange      EXHF   =         0.00000000
  -V(xc)+E(xc)   XCENC  =         2.78239656
  PAW double counting   =       696.70595042     -667.45827301
  entropy T*S    EENTRO =        -0.00225225
  eigenvalues    EBANDS =        61.91915725
  atomic energy  EATOM  =       728.31920932
  Solvation  Ediel_sol  =         0.00000000
  ---------------------------------------------------
  free energy    TOTEN  =        -5.70624448 eV

  energy without entropy =       -5.70399223  energy(sigma->0) =       -5.70511835


--------------------------------------------------------------------------------------------------------




--------------------------------------- Iteration      1(   4)  ---------------------------------------


     EDDAV:  cpu time    0.4891: real time    0.4962
       DOS:  cpu time    0.0015: real time    0.0015
    --------------------------------------------
      LOOP:  cpu time    0.4906: real time    0.4978

 eigenvalue-minimisations  :  3292
 total energy-change (2. order) :-0.2303666E-02  (-0.2303550E-02)
 number of electron      10.0000000 magnetization 
 augmentation part       10.0000000 magnetization 

 Free energy of the ion-electron system (eV)
  ---------------------------------------------------
  alpha Z        PSCENC =        52.55221741
  Ewald energy   TEWEN  =      -792.19617298
  -Hartree energ DENC   =       -88.32847720
  -exchange      EXHF   =         0.00000000
  -V(xc)+E(xc)   XCENC  =         2.78239656
  PAW double counting   =       696.70595042     -667.45827301
  entropy T*S    EENTRO =        -0.00225452
  eigenvalues    EBANDS =        61.91685585
  atomic energy  EATOM  =       728.31920932
  Solvation  Ediel_sol  =         0.00000000
  ---------------------------------------------------
  free energy    TOTEN  =        -5.70854815 eV

  energy without entropy =       -5.70629363  energy(sigma->0) =       -5.70742089


--------------------------------------------------------------------------------------------------------




--------------------------------------- Iteration      1(   5)  ---------------------------------------


     EDDAV:  cpu time    0.4981: real time    0.5005
       DOS:  cpu time    0.0015: real time    0.0015
    CHARGE:  cpu time    0.0080: real time    0.0080
    MIXING:  cpu time    0.0003: real time    0.0003
    --------------------------------------------
      LOOP:  cpu time    0.5078: real time    0.5103

 eigenvalue-minimisations  :  3344
 total energy-change (2. order) :-0.2161763E-04  (-0.2161773E-04)
 number of electron      10.0000002 magnetization 
 augmentation part        2.9481096 magnetization 

 Broyden mixing:
  rms(total) = 0.72264E+00    rms(broyden)= 0.72262E+00
  rms(prec ) = 0.15658E+01
  weight for this iteration     100.00

 Free energy of the ion-electron system (eV)
  ---------------------------------------------------
  alpha Z        PSCENC =        52.55221741
  Ewald energy   TEWEN  =      -792.19617298
  -Hartree energ DENC   =       -88.32847720
  -exchange      EXHF   =         0.00000000
  -V(xc)+E(xc)   XCENC  =         2.78239656
  PAW double counting   =       696.70595042     -667.45827301
  entropy T*S    EENTRO =        -0.00225454
  eigenvalues    EBANDS =        61.91683425
  atomic energy  EATOM  =       728.31920932
  Solvation  Ediel_sol  =         0.00000000
  ---------------------------------------------------
  free energy    TOTEN  =        -5.70856977 eV

  energy without entropy =       -5.70631523  energy(sigma->0) =       -5.70744250


--------------------------------------------------------------------------------------------------------




--------------------------------------- Iteration      1(   6)  ---------------------------------------


    POTLOK:  cpu time    0.0040: real time    0.0040
    SETDIJ:  cpu time    0.0043: real time    0.0043
     EDDAV:  cpu time    0.4517: real time    0.4527
       DOS:  cpu time    0.0016: real time    0.0016
    CHARGE:  cpu time    0.0075: real time    0.0075
    MIXING:  cpu time    0.0004: real time    0.0004
    --------------------------------------------
      LOOP:  cpu time    0.4696: real time    0.4705

 eigenvalue-minimisations  :  2928
 total energy-change (2. order) : 0.3272653E+00  (-0.8939925E-01)
 number of electron      10.0000002 magnetization 
 augmentation part        3.1056469 magnetization 

 Broyden mixing:
  rms(total) = 0.40475E+00    rms(broyden)= 0.40475E+00
  rms(prec ) = 0.50201E+00
  weight for this iteration     100.00

 eigenvalues of (default mixing * dielectric matrix)
  average eigenvalue GAMMA=   1.6768
  1.6768

 Free energy of the ion-electron system (eV)
  ---------------------------------------------------
  alpha Z        PSCENC =        52.55221741
  Ewald energy   TEWEN  =      -792.19617298
  -Hartree energ DENC   =       -80.84945049
  -exchange      EXHF   =         0.00000000
  -V(xc)+E(xc)   XCENC  =         2.52809546
  PAW double counting   =       739.41932634     -711.35828159
  entropy T*S    EENTRO =        -0.00336188
  eigenvalues    EBANDS =        56.20711392
  atomic energy  EATOM  =       728.31920932
  Solvation  Ediel_sol  =         0.00000000
  ---------------------------------------------------
  free energy    TOTEN  =        -5.38130449 eV

  energy without entropy =       -5.37794261  energy(sigma->0) =       -5.37962355


--------------------------------------------------------------------------------------------------------




--------------------------------------- Iteration      1(   7)  ---------------------------------------


    POTLOK:  cpu time    0.0038: real time    0.0038
    SETDIJ:  cpu time    0.0039: real time    0.0039
     EDDAV:  cpu time    0.5579: real time    0.5619
       DOS:  cpu time    0.0015: real time    0.0015
    CHARGE:  cpu time    0.0074: real time    0.0074
    MIXING:  cpu time    0.0004: real time    0.0004
    --------------------------------------------
      LOOP:  cpu time    0.5749: real time    0.5789

 eigenvalue-minimisations  :  3252
 total energy-change (2. order) : 0.1334331E-01  (-0.4638403E-02)
 number of electron      10.0000002 magnetization 
 augmentation part        3.1380891 magnetization 

 Broyden mixing:
  rms(total) = 0.21711E+00    rms(broyden)= 0.21711E+00
  rms(prec ) = 0.22577E+00
  weight for this iteration     100.00

 eigenvalues of (default mixing * dielectric matrix)
  average eigenvalue GAMMA=   1.9975
  1.1830  2.8121

 Free energy of the ion-electron system (eV)
  ---------------------------------------------------
  alpha Z        PSCENC =        52.55221741
  Ewald energy   TEWEN  =      -792.19617298
  -Hartree energ DENC   =       -78.89799577
  -exchange      EXHF   =         0.00000000
  -V(xc)+E(xc)   XCENC  =         2.46159027
  PAW double counting   =       778.05297171     -750.53701634
  entropy T*S    EENTRO =        -0.00329069
  eigenvalues    EBANDS =        54.88052589
  atomic energy  EATOM  =       728.31920932
  Solvation  Ediel_sol  =         0.00000000
  ---------------------------------------------------
  free energy    TOTEN  =        -5.36796118 eV

  energy without entropy =       -5.36467049  energy(sigma->0) =       -5.36631584


--------------------------------------------------------------------------------------------------------




--------------------------------------- Iteration      1(   8)  ---------------------------------------


    POTLOK:  cpu time    0.0039: real time    0.0039
    SETDIJ:  cpu time    0.0038: real time    0.0038
     EDDAV:  cpu time    0.4583: real time    0.4592
       DOS:  cpu time    0.0015: real time    0.0015
    CHARGE:  cpu time    0.0072: real time    0.0072
    MIXING:  cpu time    0.0003: real time    0.0003
    --------------------------------------------
      LOOP:  cpu time    0.4749: real time    0.4758

 eigenvalue-minimisations  :  2912
 total energy-change (2. order) : 0.1100787E-02  (-0.1653648E-03)
 number of electron      10.0000002 magnetization 
 augmentation part        3.1416284 magnetization 

 Broyden mixing:
  rms(total) = 0.25824E-01    rms(broyden)= 0.25823E-01
  rms(prec ) = 0.32486E-01
  weight for this iteration     100.00

 eigenvalues of (default mixing * dielectric matrix)
  average eigenvalue GAMMA=   1.5789
  2.5394  0.9555  1.2420

 Free energy of the ion-electron system (eV)
  ---------------------------------------------------
  alpha Z        PSCENC =        52.55221741
  Ewald energy   TEWEN  =      -792.19617298
  -Hartree energ DENC   =       -78.23513670
  -exchange      EXHF   =         0.00000000
  -V(xc)+E(xc)   XCENC  =         2.43662856
  PAW double counting   =       822.96754485     -795.90088237
  entropy T*S    EENTRO =        -0.00327147
  eigenvalues    EBANDS =        54.69300298
  atomic energy  EATOM  =       728.31920932
  Solvation  Ediel_sol  =         0.00000000
  ---------------------------------------------------
  free energy    TOTEN  =        -5.36686040 eV

  energy without entropy =       -5.36358893  energy(sigma->0) =       -5.36522466


--------------------------------------------------------------------------------------------------------




--------------------------------------- Iteration      1(   9)  ---------------------------------------


    POTLOK:  cpu time    0.0037: real time    0.0038
    SETDIJ:  cpu time    0.0037: real time    0.0037
     EDDAV:  cpu time    0.4044: real time    0.4054
       DOS:  cpu time    0.0016: real time    0.0016
    --------------------------------------------
      LOOP:  cpu time    0.4136: real time    0.4145

 eigenvalue-minimisations  :  2260
 total energy-change (2. order) : 0.8994943E-04  (-0.2379501E-04)
 number of electron      10.0000002 magnetization 
 augmentation part        3.1416284 magnetization 

 Free energy of the ion-electron system (eV)
  ---------------------------------------------------
  alpha Z        PSCENC =        52.55221741
  Ewald energy   TEWEN  =      -792.19617298
  -Hartree energ DENC   =       -78.40318980
  -exchange      EXHF   =         0.00000000
  -V(xc)+E(xc)   XCENC  =         2.44230117
  PAW double counting   =       818.19961679     -791.06273040
  entropy T*S    EENTRO =        -0.00327284
  eigenvalues    EBANDS =        54.78525089
  atomic energy  EATOM  =       728.31920932
  Solvation  Ediel_sol  =         0.00000000
  ---------------------------------------------------
  free energy    TOTEN  =        -5.36677045 eV

  energy without entropy =       -5.36349761  energy(sigma->0) =       -5.36513403


--------------------------------------------------------------------------------------------------------




 average (electrostatic) potential at core
  the test charge radii are     1.2059
  (the norm of the test charge is              1.0000)
       1 -65.4566
 
 
 
 E-fermi :   8.2010     XC(G=0): -12.3425     alpha+bet :-13.8518

 Fermi energy:         8.2009585615

 k-point     1 :       0.0000    0.0000    0.0000
  band No.  band energies     occupation 
      1      -0.0995      2.00000
      2       5.3819      2.00000
      3       5.3820      2.00000
      4       5.3820      2.00000
      5       6.9684      2.00000
      6       6.9684      2.00000
      7      23.1409      0.00000
      8      27.1182      0.00000
      9      27.1185      0.00000
     10      27.1185      0.00000
     11      31.8347      0.00000
     12      36.6318      0.00000

 k-point     2 :       0.1667    0.0000    0.0000
  band No.  band energies     occupation 
      1       0.7908      2.00000
      2       5.1297      2.00000
      3       5.6312      2.00000
      4       5.6313      2.00000
      5       6.9063      2.00000
      6       6.9063      2.00000
      7      23.1462      0.00000
      8      24.2553      0.00000
      9      28.1879      0.00000
     10      28.1881      0.00000
     11      30.9265      0.00000
     12      33.1293      0.00000

 k-point     3 :       0.0000    0.1667    0.0000
  band No.  band energies     occupation 
      1       0.7908      2.00000
      2       5.1297      2.00000
      3       5.6312      2.00000
      4       5.6313      2.00000
      5       6.9063      2.00000
      6       6.9063      2.00000
      7      23.1462      0.00000
      8      24.2553      0.00000
      9      28.1879      0.00000
     10      28.1881      0.00000
     11      30.9265      0.00000
     12      33.1292      0.00000

 k-point     4 :       0.0000    0.0000    0.1667
  band No.  band energies     occupation 
      1       0.7908      2.00000
      2       5.1297      2.00000
      3       5.6312      2.00000
      4       5.6313      2.00000
      5       6.9063      2.00000
      6       6.9063      2.00000
      7      23.1462      0.00000
      8      24.2553      0.00000
      9      28.1879      0.00000
     10      28.1881      0.00000
     11      30.9265      0.00000
     12      33.1292      0.00000

 k-point     5 :       0.1667    0.1667    0.1667
  band No.  band energies     occupation 
      1       0.7907      2.00000
      2       5.1297      2.00000
      3       5.6313      2.00000
      4       5.6313      2.00000
      5       6.9063      2.00000
      6       6.9063      2.00000
      7      23.1459      0.00000
      8      24.2553      0.00000
      9      28.1881      0.00000
     10      28.1881      0.00000
     11      30.9265      0.00000
     12      33.1293      0.00000

 k-point     6 :       0.3333    0.0000    0.0000
  band No.  band energies     occupation 
      1       2.3499      2.00000
      2       5.5422      2.00000
      3       5.5423      2.00000
      4       5.8458      2.00000
      5       7.5760      2.00000
      6       7.5760      2.00000
      7      17.2397      0.00000
      8      23.5489      0.00000
      9      27.6010      0.00000
     10      27.6012      0.00000
     11      31.6037      0.00000
     12      32.0379      0.00000

 k-point     7 :       0.0000    0.3333    0.0000
  band No.  band energies     occupation 
      1       2.3499      2.00000
      2       5.5422      2.00000
      3       5.5423      2.00000
      4       5.8458      2.00000
      5       7.5760      2.00000
      6       7.5760      2.00000
      7      17.2397      0.00000
      8      23.5489      0.00000
      9      27.6010      0.00000
     10      27.6011      0.00000
     11      31.6037      0.00000
     12      32.0379      0.00000

 k-point     8 :       0.0000    0.0000    0.3333
  band No.  band energies     occupation 
      1       2.3499      2.00000
      2       5.5422      2.00000
      3       5.5423      2.00000
      4       5.8458      2.00000
      5       7.5760      2.00000
      6       7.5760      2.00000
      7      17.2397      0.00000
      8      23.5489      0.00000
      9      27.6010      0.00000
     10      27.6011      0.00000
     11      31.6037      0.00000
     12      32.0379      0.00000

 k-point     9 :       0.3333    0.3333    0.3333
  band No.  band energies     occupation 
      1       2.3499      2.00000
      2       5.5422      2.00000
      3       5.5422      2.00000
      4       5.8457      2.00000
      5       7.5760      2.00000
      6       7.5760      2.00000
      7      17.2395      0.00000
      8      23.5489      0.00000
      9      27.6012      0.00000
     10      27.6012      0.00000
     11      31.6037      0.00000
     12      32.0380      0.00000

 k-point    10 :       0.5000    0.0000    0.0000
  band No.  band energies     occupation 
      1       2.5894      2.00000
      2       5.3497      2.00000
      3       5.3498      2.00000
      4       8.1894      1.25591
      5       8.1895      1.25503
      6       8.4641      0.00000
      7      12.8034      0.00000
      8      22.6634      0.00000
      9      25.8610      0.00000
     10      25.8611      0.00000
     11      33.6078      0.00000
     12      33.6078      0.00000

 k-point    11 :       0.0000    0.5000    0.0000
  band No.  band energies     occupation 
      1       2.5894      2.00000
      2       5.3497      2.00000
      3       5.3498      2.00000
      4       8.1894      1.25586
      5       8.1895      1.25502
      6       8.4641      0.00000
      7      12.8034      0.00000
      8      22.6634      0.00000
      9      25.8610      0.00000
     10      25.8611      0.00000
     11      33.6078      0.00000
     12      33.6078      0.00000

 k-point    12 :       0.0000    0.0000    0.5000
  band No.  band energies     occupation 
      1       2.5894      2.00000
      2       5.3497      2.00000
      3       5.3498      2.00000
      4       8.1894      1.25587
      5       8.1895      1.25502
      6       8.4641      0.00000
      7      12.8034      0.00000
      8      22.6634      0.00000
      9      25.8610      0.00000
     10      25.8611      0.00000
     11      33.6078      0.00000
     12      33.6078      0.00000

 k-point    13 :       0.5000    0.5000    0.5000
  band No.  band energies     occupation 
      1       2.5894      2.00000
      2       5.3498      2.00000
      3       5.3498      2.00000
      4       8.1894      1.25583
      5       8.1894      1.25574
      6       8.4640      0.00000
      7      12.8033      0.00000
      8      22.6635      0.00000
      9      25.8612      0.00000
     10      25.8612      0.00000
     11      33.6079      0.00000
     12      33.6079      0.00000

 k-point    14 :       0.1667    0.1667    0.0000
  band No.  band energies     occupation 
      1       1.0981      2.00000
      2       4.7645      2.00000
      3       5.9557      2.00000
      4       5.9558      2.00000
      5       6.3299      2.00000
      6       7.2450      2.00000
      7      24.6514      0.00000
      8      25.2721      0.00000
      9      25.9156      0.00000
     10      25.9158      0.00000
     11      30.6553      0.00000
     12      33.1434      0.00000

 k-point    15 :       0.0000    0.1667    0.1667
  band No.  band energies     occupation 
      1       1.0981      2.00000
      2       4.7645      2.00000
      3       5.9557      2.00000
      4       5.9558      2.00000
      5       6.3299      2.00000
      6       7.2450      2.00000
      7      24.6514      0.00000
      8      25.2721      0.00000
      9      25.9156      0.00000
     10      25.9158      0.00000
     11      30.6553      0.00000
     12      33.1434      0.00000

 k-point    16 :       0.1667    0.0000    0.1667
  band No.  band energies     occupation 
      1       1.0981      2.00000
      2       4.7645      2.00000
      3       5.9557      2.00000
      4       5.9558      2.00000
      5       6.3299      2.00000
      6       7.2450      2.00000
      7      24.6514      0.00000
      8      25.2721      0.00000
      9      25.9156      0.00000
     10      25.9158      0.00000
     11      30.6553      0.00000
     12      33.1434      0.00000

 k-point    17 :       0.3333    0.1667    0.0000
  band No.  band energies     occupation 
      1       2.6353      2.00000
      2       4.5104      2.00000
      3       5.4926      2.00000
      4       6.2027      2.00000
      5       7.4504      2.00000
      6       7.7867      2.00000
      7      19.6812      0.00000
      8      24.4178      0.00000
      9      24.5419      0.00000
     10      26.3440      0.00000
     11      30.1092      0.00000
     12      33.0998      0.00000

 k-point    18 :       0.0000    0.3333    0.1667
  band No.  band energies     occupation 
      1       2.6353      2.00000
      2       4.5104      2.00000
      3       5.4926      2.00000
      4       6.2027      2.00000
      5       7.4504      2.00000
      6       7.7867      2.00000
      7      19.6812      0.00000
      8      24.4178      0.00000
      9      24.5419      0.00000
     10      26.3440      0.00000
     11      30.1092      0.00000
     12      33.0999      0.00000

 k-point    19 :       0.1667    0.0000    0.3333
  band No.  band energies     occupation 
      1       2.6353      2.00000
      2       4.5104      2.00000
      3       5.4926      2.00000
      4       6.2027      2.00000
      5       7.4504      2.00000
      6       7.7867      2.00000
      7      19.6812      0.00000
      8      24.4178      0.00000
      9      24.5419      0.00000
     10      26.3440      0.00000
     11      30.1092      0.00000
     12      33.0999      0.00000

 k-point    20 :       0.1667    0.1667   -0.1667
  band No.  band energies     occupation 
      1       2.6353      2.00000
      2       4.5104      2.00000
      3       5.4926      2.00000
      4       6.2028      2.00000
      5       7.4504      2.00000
      6       7.7867      2.00000
      7      19.6811      0.00000
      8      24.4180      0.00000
      9      24.5418      0.00000
     10      26.3441      0.00000
     11      30.1090      0.00000
     12      33.1000      0.00000

 k-point    21 :       0.3333    0.1667    0.3333
  band No.  band energies     occupation 
      1       2.6353      2.00000
      2       4.5104      2.00000
      3       5.4926      2.00000
      4       6.2027      2.00000
      5       7.4504      2.00000
      6       7.7867      2.00000
      7      19.6809      0.00000
      8      24.4180      0.00000
      9      24.5419      0.00000
     10      26.3441      0.00000
     11      30.1091      0.00000
     12      33.1000      0.00000

 k-point    22 :       0.1667    0.3333    0.0000
  band No.  band energies     occupation 
      1       2.6353      2.00000
      2       4.5104      2.00000
      3       5.4926      2.00000
      4       6.2027      2.00000
      5       7.4504      2.00000
      6       7.7867      2.00000
      7      19.6812      0.00000
      8      24.4178      0.00000
      9      24.5419      0.00000
     10      26.3440      0.00000
     11      30.1092      0.00000
     12      33.0998      0.00000

 k-point    23 :       0.1667   -0.1667   -0.1667
  band No.  band energies     occupation 
      1       2.6353      2.00000
      2       4.5104      2.00000
      3       5.4926      2.00000
      4       6.2028      2.00000
      5       7.4504      2.00000
      6       7.7867      2.00000
      7      19.6811      0.00000
      8      24.4180      0.00000
      9      24.5418      0.00000
     10      26.3441      0.00000
     11      30.1089      0.00000
     12      33.1000      0.00000

 k-point    24 :       0.3333    0.3333    0.1667
  band No.  band energies     occupation 
      1       2.6353      2.00000
      2       4.5104      2.00000
      3       5.4926      2.00000
      4       6.2027      2.00000
      5       7.4504      2.00000
      6       7.7867      2.00000
      7      19.6809      0.00000
      8      24.4180      0.00000
      9      24.5419      0.00000
     10      26.3441      0.00000
     11      30.1091      0.00000
     12      33.1000      0.00000

 k-point    25 :       0.0000    0.1667    0.3333
  band No.  band energies     occupation 
      1       2.6353      2.00000
      2       4.5104      2.00000
      3       5.4926      2.00000
      4       6.2027      2.00000
      5       7.4504      2.00000
      6       7.7867      2.00000
      7      19.6812      0.00000
      8      24.4178      0.00000
      9      24.5419      0.00000
     10      26.3440      0.00000
     11      30.1092      0.00000
     12      33.0998      0.00000

 k-point    26 :      -0.1667    0.1667   -0.1667
  band No.  band energies     occupation 
      1       2.6353      2.00000
      2       4.5104      2.00000
      3       5.4926      2.00000
      4       6.2028      2.00000
      5       7.4504      2.00000
      6       7.7867      2.00000
      7      19.6811      0.00000
      8      24.4180      0.00000
      9      24.5418      0.00000
     10      26.3441      0.00000
     11      30.1090      0.00000
     12      33.1000      0.00000

 k-point    27 :       0.1667    0.3333    0.3333
  band No.  band energies     occupation 
      1       2.6353      2.00000
      2       4.5104      2.00000
      3       5.4926      2.00000
      4       6.2027      2.00000
      5       7.4504      2.00000
      6       7.7867      2.00000
      7      19.6809      0.00000
      8      24.4180      0.00000
      9      24.5419      0.00000
     10      26.3441      0.00000
     11      30.1091      0.00000
     12      33.1000      0.00000

 k-point    28 :       0.3333    0.0000    0.1667
  band No.  band energies     occupation 
      1       2.6353      2.00000
      2       4.5104      2.00000
      3       5.4926      2.00000
      4       6.2027      2.00000
      5       7.4504      2.00000
      6       7.7867      2.00000
      7      19.6812      0.00000
      8      24.4178      0.00000
      9      24.5419      0.00000
     10      26.3440      0.00000
     11      30.1092      0.00000
     12      33.0999      0.00000

 k-point    29 :       0.5000    0.1667    0.0000
  band No.  band energies     occupation 
      1       3.2059      2.00000
      2       4.9440      2.00000
      3       5.8971      2.00000
      4       5.9327      2.00000
      5       8.2331      0.36304
      6      10.4128      0.00000
      7      13.6703      0.00000
      8      22.5577      0.00000
      9      24.1459      0.00000
     10      24.7174      0.00000
     11      33.5688      0.00000
     12      34.2789      0.00000

 k-point    30 :       0.0000    0.5000    0.1667
  band No.  band energies     occupation 
      1       3.2059      2.00000
      2       4.9440      2.00000
      3       5.8971      2.00000
      4       5.9327      2.00000
      5       8.2331      0.36303
      6      10.4128      0.00000
      7      13.6703      0.00000
      8      22.5577      0.00000
      9      24.1458      0.00000
     10      24.7174      0.00000
     11      33.5688      0.00000
     12      34.2789      0.00000

 k-point    31 :       0.1667    0.0000    0.5000
  band No.  band energies     occupation 
      1       3.2059      2.00000
      2       4.9440      2.00000
      3       5.8971      2.00000
      4       5.9327      2.00000
      5       8.2331      0.36300
      6      10.4128      0.00000
      7      13.6703      0.00000
      8      22.5577      0.00000
      9      24.1459      0.00000
     10      24.7174      0.00000
     11      33.5688      0.00000
[...]
      1       3.8803      2.00000
      2       4.2577      2.00000
      3       4.9950      2.00000
      4       7.0685      2.00000
      5       7.4354      2.00000
      6       9.8070      0.00000
      7      17.7527      0.00000
      8      19.5193      0.00000
      9      22.5472      0.00000
     10      28.8075      0.00000
     11      29.1537      0.00000
     12      34.0337      0.00000

 k-point    90 :       0.1667   -0.1667   -0.3333
  band No.  band energies     occupation 
      1       3.8803      2.00000
      2       4.2577      2.00000
      3       4.9950      2.00000
      4       7.0685      2.00000
      5       7.4354      2.00000
      6       9.8070      0.00000
      7      17.7527      0.00000
      8      19.5193      0.00000
      9      22.5472      0.00000
     10      28.8076      0.00000
     11      29.1537      0.00000
     12      34.0337      0.00000

 k-point    91 :       0.3333    0.5000    0.1667
  band No.  band energies     occupation 
      1       3.8803      2.00000
      2       4.2577      2.00000
      3       4.9950      2.00000
      4       7.0685      2.00000
      5       7.4354      2.00000
      6       9.8069      0.00000
      7      17.7527      0.00000
      8      19.5192      0.00000
      9      22.5472      0.00000
     10      28.8077      0.00000
     11      29.1537      0.00000
     12      34.0338      0.00000

 k-point    92 :      -0.1667    0.1667   -0.3333
  band No.  band energies     occupation 
      1       3.8803      2.00000
      2       4.2577      2.00000
      3       4.9950      2.00000
      4       7.0685      2.00000
      5       7.4354      2.00000
      6       9.8070      0.00000
      7      17.7527      0.00000
      8      19.5193      0.00000
      9      22.5472      0.00000
     10      28.8075      0.00000
     11      29.1537      0.00000
     12      34.0337      0.00000

 k-point    93 :      -0.3333    0.1667   -0.1667
  band No.  band energies     occupation 
      1       3.8803      2.00000
      2       4.2577      2.00000
      3       4.9950      2.00000
      4       7.0685      2.00000
      5       7.4354      2.00000
      6       9.8070      0.00000
      7      17.7527      0.00000
      8      19.5193      0.00000
      9      22.5472      0.00000
     10      28.8076      0.00000
     11      29.1537      0.00000
     12      34.0337      0.00000

 k-point    94 :       0.1667    0.3333    0.5000
  band No.  band energies     occupation 
      1       3.8803      2.00000
      2       4.2577      2.00000
      3       4.9950      2.00000
      4       7.0685      2.00000
      5       7.4354      2.00000
      6       9.8069      0.00000
      7      17.7527      0.00000
      8      19.5192      0.00000
      9      22.5472      0.00000
     10      28.8077      0.00000
     11      29.1537      0.00000
     12      34.0338      0.00000

 k-point    95 :      -0.3333    0.3333    0.1667
  band No.  band energies     occupation 
      1       4.1874      2.00000
      2       4.3419      2.00000
      3       5.2127      2.00000
      4       6.6662      2.00000
      5       8.0763      1.99958
      6      12.8927      0.00000
      7      13.6440      0.00000
      8      19.0258      0.00000
      9      20.8704      0.00000
     10      27.9010      0.00000
     11      31.7501      0.00000
     12      36.1854      0.00000

 k-point    96 :       0.1667   -0.3333    0.3333
  band No.  band energies     occupation 
      1       4.1874      2.00000
      2       4.3419      2.00000
      3       5.2127      2.00000
      4       6.6662      2.00000
      5       8.0763      1.99958
      6      12.8927      0.00000
      7      13.6440      0.00000
      8      19.0258      0.00000
      9      20.8704      0.00000
     10      27.9009      0.00000
     11      31.7501      0.00000
     12      36.1855      0.00000

 k-point    97 :       0.3333    0.1667   -0.3333
  band No.  band energies     occupation 
      1       4.1874      2.00000
      2       4.3419      2.00000
      3       5.2127      2.00000
      4       6.6662      2.00000
      5       8.0764      1.99958
      6      12.8927      0.00000
      7      13.6440      0.00000
      8      19.0258      0.00000
      9      20.8704      0.00000
     10      27.9010      0.00000
     11      31.7501      0.00000
     12      36.1845      0.00000

 k-point    98 :      -0.3333    0.3333    0.5000
  band No.  band energies     occupation 
      1       4.1875      2.00000
      2       4.3419      2.00000
      3       5.2127      2.00000
      4       6.6662      2.00000
      5       8.0763      1.99958
      6      12.8926      0.00000
      7      13.6440      0.00000
      8      19.0259      0.00000
      9      20.8705      0.00000
     10      27.9011      0.00000
     11      31.7500      0.00000
     12      36.1852      0.00000

 k-point    99 :       0.1667    0.5000   -0.1667
  band No.  band energies     occupation 
      1       4.1875      2.00000
      2       4.3420      2.00000
      3       5.2127      2.00000
      4       6.6661      2.00000
      5       8.0763      1.99958
      6      12.8927      0.00000
      7      13.6441      0.00000
      8      19.0258      0.00000
      9      20.8704      0.00000
     10      27.9009      0.00000
     11      31.7500      0.00000
     12      36.1836      0.00000

 k-point   100 :       0.3333   -0.1667   -0.3333
  band No.  band energies     occupation 
      1       4.1874      2.00000
      2       4.3419      2.00000
      3       5.2127      2.00000
      4       6.6662      2.00000
      5       8.0763      1.99958
      6      12.8927      0.00000
      7      13.6440      0.00000
      8      19.0258      0.00000
      9      20.8704      0.00000
     10      27.9010      0.00000
     11      31.7501      0.00000
     12      36.1871      0.00000

 k-point   101 :       0.5000   -0.3333    0.3333
  band No.  band energies     occupation 
      1       4.1875      2.00000
      2       4.3420      2.00000
      3       5.2127      2.00000
      4       6.6662      2.00000
      5       8.0763      1.99958
      6      12.8926      0.00000
      7      13.6440      0.00000
      8      19.0259      0.00000
      9      20.8705      0.00000
     10      27.9011      0.00000
     11      31.7500      0.00000
     12      36.1842      0.00000

 k-point   102 :      -0.1667    0.1667    0.5000
  band No.  band energies     occupation 
      1       4.1875      2.00000
      2       4.3420      2.00000
      3       5.2127      2.00000
      4       6.6661      2.00000
      5       8.0763      1.99958
      6      12.8927      0.00000
      7      13.6441      0.00000
      8      19.0258      0.00000
      9      20.8704      0.00000
     10      27.9009      0.00000
     11      31.7500      0.00000
     12      36.1894      0.00000

 k-point   103 :      -0.3333    0.3333   -0.1667
  band No.  band energies     occupation 
      1       4.1874      2.00000
      2       4.3419      2.00000
      3       5.2127      2.00000
      4       6.6662      2.00000
      5       8.0764      1.99958
      6      12.8927      0.00000
      7      13.6440      0.00000
      8      19.0258      0.00000
      9      20.8704      0.00000
     10      27.9010      0.00000
     11      31.7501      0.00000
     12      36.1833      0.00000

 k-point   104 :       0.3333    0.5000   -0.3333
  band No.  band energies     occupation 
      1       4.1875      2.00000
      2       4.3419      2.00000
      3       5.2127      2.00000
      4       6.6662      2.00000
      5       8.0763      1.99958
      6      12.8926      0.00000
      7      13.6440      0.00000
      8      19.0259      0.00000
      9      20.8705      0.00000
     10      27.9011      0.00000
     11      31.7500      0.00000
     12      36.1889      0.00000

 k-point   105 :       0.5000   -0.1667    0.1667
  band No.  band energies     occupation 
      1       4.1875      2.00000
      2       4.3420      2.00000
      3       5.2127      2.00000
      4       6.6661      2.00000
      5       8.0763      1.99958
      6      12.8927      0.00000
      7      13.6441      0.00000
      8      19.0258      0.00000
      9      20.8704      0.00000
     10      27.9009      0.00000
     11      31.7500      0.00000
     12      36.1832      0.00000

 k-point   106 :      -0.1667   -0.3333    0.3333
  band No.  band energies     occupation 
      1       4.1874      2.00000
      2       4.3419      2.00000
      3       5.2127      2.00000
      4       6.6662      2.00000
      5       8.0763      1.99958
      6      12.8927      0.00000
      7      13.6440      0.00000
      8      19.0258      0.00000
      9      20.8704      0.00000
     10      27.9010      0.00000
     11      31.7501      0.00000
     12      36.1868      0.00000

 k-point   107 :      -0.3333    0.5000    0.1667
  band No.  band energies     occupation 
      1       3.6579      2.00000
      2       3.9623      2.00000
      3       6.0106      2.00000
      4       7.2055      2.00000
      5       8.5139      0.00000
      6      13.6440      0.00000
      7      14.3883      0.00000
      8      17.4135      0.00000
      9      18.8650      0.00000
     10      29.7187      0.00000
     11      30.2549      0.00000
     12      33.1764      0.00000

 k-point   108 :       0.1667   -0.3333    0.5000
  band No.  band energies     occupation 
      1       3.6579      2.00000
      2       3.9623      2.00000
      3       6.0106      2.00000
      4       7.2055      2.00000
      5       8.5139      0.00000
      6      13.6440      0.00000
      7      14.3883      0.00000
      8      17.4135      0.00000
      9      18.8650      0.00000
     10      29.7187      0.00000
     11      30.2549      0.00000
     12      33.1764      0.00000

 k-point   109 :       0.5000    0.1667   -0.3333
  band No.  band energies     occupation 
      1       3.6579      2.00000
      2       3.9623      2.00000
      3       6.0106      2.00000
      4       7.2055      2.00000
      5       8.5139      0.00000
      6      13.6440      0.00000
      7      14.3883      0.00000
      8      17.4135      0.00000
      9      18.8650      0.00000
     10      29.7187      0.00000
     11      30.2549      0.00000
     12      33.1764      0.00000

 k-point   110 :       0.5000    0.3333   -0.1667
  band No.  band energies     occupation 
      1       3.6579      2.00000
      2       3.9623      2.00000
      3       6.0106      2.00000
      4       7.2055      2.00000
      5       8.5139      0.00000
      6      13.6440      0.00000
      7      14.3883      0.00000
      8      17.4135      0.00000
      9      18.8650      0.00000
     10      29.7187      0.00000
     11      30.2549      0.00000
     12      33.1764      0.00000

 k-point   111 :      -0.3333    0.1667    0.5000
  band No.  band energies     occupation 
      1       3.6579      2.00000
      2       3.9623      2.00000
      3       6.0106      2.00000
      4       7.2055      2.00000
      5       8.5139      0.00000
      6      13.6440      0.00000
      7      14.3883      0.00000
      8      17.4135      0.00000
      9      18.8650      0.00000
     10      29.7187      0.00000
     11      30.2549      0.00000
     12      33.1764      0.00000

 k-point   112 :       0.1667    0.5000   -0.3333
  band No.  band energies     occupation 
      1       3.6579      2.00000
      2       3.9623      2.00000
      3       6.0106      2.00000
      4       7.2055      2.00000
      5       8.5139      0.00000
      6      13.6440      0.00000
      7      14.3883      0.00000
      8      17.4135      0.00000
      9      18.8650      0.00000
     10      29.7187      0.00000
     11      30.2549      0.00000
     12      33.1764      0.00000


--------------------------------------------------------------------------------------------------------


 soft charge-density along one line, spin component            1
         0         1         2         3         4         5         6         7         8         9
 total charge-density along one line
 
 pseudopotential strength for first ion, spin component:            1
 -3.373   0.000  -0.014   0.000   0.008  -3.562   0.000  -0.014
  0.000  -3.373   0.000  -0.017  -0.000   0.000  -3.562   0.000
 -0.014   0.000  -3.387   0.000  -0.005  -0.014   0.000  -3.576
  0.000  -0.017   0.000  -3.385   0.000   0.000  -0.016   0.000
  0.008  -0.000  -0.005   0.000  -3.393   0.008  -0.000  -0.005
 -3.562   0.000  -0.014   0.000   0.008  -3.732   0.000  -0.014
  0.000  -3.562   0.000  -0.016  -0.000   0.000  -3.732   0.000
 -0.014   0.000  -3.576   0.000  -0.005  -0.014   0.000  -3.746
  0.000  -0.016   0.000  -3.573   0.000   0.000  -0.016   0.000
  0.008  -0.000  -0.005   0.000  -3.582   0.008  -0.000  -0.005
 -0.000  -0.000  -0.000  -0.000  -0.000  -0.000  -0.000  -0.000
 -0.000  -0.000  -0.000  -0.000  -0.000  -0.000  -0.000  -0.000
 -0.000   0.000  -0.000  -0.000  -0.000  -0.000   0.000  -0.000
 -0.000   0.000   0.000  -0.000   0.000  -0.000   0.000   0.000
  0.000  -0.000   0.000   0.000  -0.000   0.000  -0.000   0.000
 -0.000   0.000  -0.000  -0.000  -0.000  -0.000   0.000  -0.000
 -0.000   0.000   0.000  -0.000   0.000  -0.000   0.000   0.000
  0.000  -0.000   0.000   0.000  -0.000   0.000  -0.000   0.000
 total augmentation occupancy for first ion, spin component:            1
  3.782   0.000  -0.314   0.000   0.182  -1.994  -0.000   0.089  -0.000  -0.051   0.000  -0.000  -0.000  -0.000  -0.000  -0.000
  0.000   3.782  -0.000  -0.363  -0.000  -0.000  -1.994   0.000   0.103   0.000   0.000  -0.000   0.000   0.000  -0.000  -0.000
 -0.314  -0.000   3.462  -0.000  -0.111   0.089   0.000  -1.904   0.000   0.031   0.000   0.000   0.000   0.000  -0.000   0.000
  0.000  -0.363  -0.000   3.526   0.000  -0.000   0.103   0.000  -1.922  -0.000   0.000  -0.000  -0.000   0.000   0.000  -0.000
  0.182  -0.000  -0.111   0.000   3.333  -0.051   0.000   0.031  -0.000  -1.867   0.000  -0.000   0.000   0.000   0.000  -0.000
 -1.994  -0.000   0.089  -0.000  -0.051   1.988   0.000   0.070   0.000  -0.040  -0.000   0.000   0.000   0.000  -0.000  -0.000
 -0.000  -1.994   0.000   0.103   0.000   0.000   1.988   0.000   0.081  -0.000  -0.000   0.000  -0.000   0.000   0.000   0.000
  0.089   0.000  -1.904   0.000   0.031   0.070   0.000   2.060  -0.000   0.025  -0.000   0.000   0.000  -0.000   0.000  -0.000
 -0.000   0.103   0.000  -1.922  -0.000   0.000   0.081  -0.000   2.045   0.000  -0.000   0.000   0.000  -0.000  -0.000   0.000
 -0.051   0.000   0.031  -0.000  -1.867  -0.040  -0.000   0.025   0.000   2.088  -0.000   0.000  -0.000  -0.000  -0.000   0.000
  0.000   0.000   0.000   0.000   0.000  -0.000  -0.000  -0.000  -0.000  -0.000   2.105  -0.438   0.000  -0.000  -0.000   0.000
 -0.000  -0.000   0.000  -0.000  -0.000   0.000   0.000   0.000   0.000   0.000  -0.438   0.104  -0.000   0.000   0.000  -0.000
 -0.000   0.000   0.000  -0.000   0.000   0.000  -0.000   0.000   0.000  -0.000   0.000  -0.000   0.210  -0.000  -0.000  -0.013
 -0.000   0.000   0.000   0.000   0.000   0.000   0.000  -0.000  -0.000  -0.000  -0.000   0.000  -0.000   0.210  -0.000   0.000
 -0.000  -0.000  -0.000   0.000   0.000  -0.000   0.000   0.000  -0.000  -0.000  -0.000   0.000  -0.000  -0.000   0.210   0.000
 -0.000  -0.000   0.000  -0.000  -0.000  -0.000   0.000  -0.000   0.000   0.000   0.000  -0.000  -0.013   0.000   0.000   0.001
  0.000  -0.000  -0.000  -0.000   0.000  -0.000  -0.000   0.000   0.000  -0.000   0.000  -0.000   0.000  -0.013   0.000  -0.000
  0.000   0.000   0.000  -0.000  -0.000  -0.000  -0.000  -0.000   0.000   0.000   0.000  -0.000  -0.000   0.000  -0.013  -0.000


------------------------ aborting loop because EDIFF is reached ----------------------------------------





 total charge

# of ion       s       p       d       tot
------------------------------------------
    1        0.560   0.405   7.949   8.914
 
    CHARGE:  cpu time    0.0073: real time    0.0073
    FORLOC:  cpu time    0.0001: real time    0.0001
    FORNL :  cpu time    0.0223: real time    0.0224
    FORCOR:  cpu time    0.0073: real time    0.0073
    FORHAR:  cpu time    0.0010: real time    0.0010
    MIXING:  cpu time    0.0004: real time    0.0004
    OFIELD:  cpu time    0.0000: real time    0.0000

 VOLUME and BASIS-vectors are now :
 -----------------------------------------------------------------------------
  energy-cutoff  :      420.00
  volume of cell :       18.09
      direct lattice vectors                 reciprocal lattice vectors
     2.551735000  0.000005000  1.473259000     0.391890897 -0.138555073 -0.000000696
     0.850584000  2.405795000  1.473259000    -0.000000407  0.415663590 -0.000000705
     0.000007000  0.000005000  2.946496000    -0.195946708 -0.138555293  0.339386873

  length of vectors
     2.946496834  2.946495343  2.946496000     0.415663305  0.415663590  0.415663483


 FORCES acting on ions
    electron-ion (+dipol)            ewald-force                    non-local-force                 convergence-correction
 -----------------------------------------------------------------------------------------------
   -.240E-04 0.197E-04 0.790E-05   0.278E-14 -.349E-15 -.152E-15   0.224E-05 -.593E-05 0.559E-05   0.266E-04 -.146E-04 -.111E-04
 -----------------------------------------------------------------------------------------------
   -.240E-04 0.197E-04 0.790E-05   0.278E-14 -.349E-15 -.152E-15   0.224E-05 -.593E-05 0.559E-05   0.266E-04 -.146E-04 -.111E-04
 
 
 POSITION                                       TOTAL-FORCE (eV/Angst)
 -----------------------------------------------------------------------------------
      0.00000      0.00000      0.00000         0.000005     -0.000001      0.000002
 -----------------------------------------------------------------------------------
    total drift:                                0.000005     -0.000001      0.000002


--------------------------------------------------------------------------------------------------------



  FREE ENERGIE OF THE ION-ELECTRON SYSTEM (eV)
  ---------------------------------------------------
  free  energy   TOTEN  =        -5.36677045 eV

  energy  without entropy=       -5.36349761  energy(sigma->0) =       -5.36513403
 


--------------------------------------------------------------------------------------------------------


    POTLOK:  cpu time    0.0073: real time    0.0073


--------------------------------------------------------------------------------------------------------


     LOOP+:  cpu time    4.4256: real time    4.4505
    4ORBIT:  cpu time    0.0000: real time    0.0000



 total charge

# of ion       s       p       d       tot
------------------------------------------
    1        0.560   0.405   7.949   8.914
 

 total amount of memory used by VASP MPI-rank0    32524. kBytes
=======================================================================

   base      :      30000. kBytes
   nonl-proj :       1614. kBytes
   fftplans  :        106. kBytes
   grid      :        144. kBytes
   one-center:         15. kBytes
   wavefun   :        645. kBytes
 
  
  
 General timing and accounting informations for this job:
 ========================================================
  
                  Total CPU time used (sec):        5.578
                            User time (sec):        5.354
                          System time (sec):        0.225
                         Elapsed time (sec):       10.405
  
                   Maximum memory used (kb):       53820.
                   Average memory used (kb):          N/A
  
                          Minor page faults:         6840
                          Major page faults:          450
                 Voluntary context switches:         5374
