<?xml version="1.0" encoding="ISO-8859-1"?>
<modeling>
 <generator>
  <i name="program" type="string">vasp </i>
  <i name="version" type="string">6.2.0  </i>
  <i name="subversion" type="string">18Jan21 (build Feb  1 2022 01:28:57) complex                          parallel </i>
  <i name="platform" type="string">LinuxPGI </i>
  <i name="date" type="string">2022 05 18 </i>
  <i name="time" type="string">19:37:41 </i>
 </generator>
 <incar>
  <i type="string" name="PREC">Normal</i>
  <i type="string" name="ALGO">38</i>
  <i type="int" name="ISPIN">     1</i>
  <i type="int" name="NELM">    60</i>
  <i type="int" name="NELMIN">     4</i>
  <i type="int" name="IBRION">     2</i>
  <i name="EDIFF">      0.00010000</i>
  <i name="EDIFFG">     -0.03000000</i>
  <i type="int" name="NSW">     0</i>
  <i type="int" name="ISIF">     0</i>
  <i type="int" name="ISYM">     0</i>
  <i name="SYMPREC">      0.00001000</i>
  <i name="ENCUT">    420.00000000</i>
  <i type="logical" name="LREAL"> F  </i>
  <i type="int" name="ISMEAR">     0</i>
  <i name="SIGMA">      0.05000000</i>
  <i type="logical" name="LWAVE"> F  </i>
  <i type="logical" name="LVTOT"> F  </i>
  <i type="int" name="LORBIT">    11</i>
  <i type="logical" name="LASPH"> F  </i>
  <i type="string" name="GGA">RP</i>
 </incar>
 <primitive_cell>
  <structure name="primitive_cell" >
   <crystal>
    <varray name="basis" >
     <v>       2.55173500       0.00000500       1.47325900 </v>
     <v>       0.85058400       2.40579500       1.47325900 </v>
     <v>       0.00000700       0.00000500       2.94649600 </v>
    </varray>
    <i name="volume">     18.08834559 </i>
    <varray name="rec_basis" >
     <v>       0.39189090      -0.13855507      -0.00000070 </v>
     <v>      -0.00000041       0.41566359      -0.00000071 </v>
     <v>      -0.19594671      -0.13855529       0.33938687 </v>
    </varray>
   </crystal>
   <varray name="positions" >
    <v>       0.00000000       0.00000000       0.00000000 </v>
   </varray>
  </structure>
  <varray name="primitive_index" >
   <v type="int" >        1 </v>
  </varray>
 </primitive_cell>
 <kpoints>
  <generation param="Gamma">
   <v type="int" name="divisions">       6        6        6 </v>
   <v name="usershift">      0.00000000       0.00000000       0.00000000 </v>
   <v name="genvec1">      0.16666667       0.00000000       0.00000000 </v>
   <v name="genvec2">     -0.00000000       0.16666667      -0.00000000 </v>
   <v name="genvec3">      0.00000000      -0.00000000       0.16666667 </v>
   <v name="shift">      0.00000000       0.00000000       0.00000000 </v>
  </generation>
  <varray name="kpointlist" >
   <v>       0.00000000       0.00000000       0.00000000 </v>
   <v>       0.16666667       0.00000000       0.00000000 </v>
   <v>       0.00000000       0.16666667       0.00000000 </v>
   <v>       0.00000000       0.00000000       0.16666667 </v>
   <v>       0.16666667       0.16666667       0.16666667 </v>
   <v>       0.33333333       0.00000000       0.00000000 </v>
   <v>       0.00000000       0.33333333       0.00000000 </v>
   <v>       0.00000000       0.00000000       0.33333333 </v>
   <v>       0.33333333       0.33333333       0.33333333 </v>
   <v>       0.50000000       0.00000000       0.00000000 </v>
   <v>       0.00000000       0.50000000       0.00000000 </v>
   <v>       0.00000000       0.00000000       0.50000000 </v>
   <v>       0.50000000       0.50000000       0.50000000 </v>
   <v>       0.16666667       0.16666667       0.00000000 </v>
   <v>       0.00000000       0.16666667       0.16666667 </v>
   <v>       0.16666667       0.00000000       0.16666667 </v>
   <v>       0.33333333       0.16666667       0.00000000 </v>
   <v>       0.00000000       0.33333333       0.16666667 </v>
   <v>       0.16666667       0.00000000       0.33333333 </v>
   <v>       0.16666667       0.16666667      -0.16666667 </v>
   <v>       0.33333333       0.16666667       0.33333333 </v>
   <v>       0.16666667       0.33333333       0.00000000 </v>
   <v>       0.16666667      -0.16666667      -0.16666667 </v>
   <v>       0.33333333       0.33333333       0.16666667 </v>
   <v>       0.00000000       0.16666667       0.33333333 </v>
   <v>      -0.16666667       0.16666667      -0.16666667 </v>
   <v>       0.16666667       0.33333333       0.33333333 </v>
   <v>       0.33333333       0.00000000       0.16666667 </v>
   <v>       0.50000000       0.16666667       0.00000000 </v>
   <v>       0.00000000       0.50000000       0.16666667 </v>
   <v>       0.16666667       0.00000000       0.50000000 </v>
   <v>       0.16666667       0.16666667      -0.33333333 </v>
   <v>       0.50000000       0.33333333       0.50000000 </v>
   <v>       0.16666667       0.50000000       0.00000000 </v>
   <v>       0.33333333      -0.16666667      -0.16666667 </v>
   <v>       0.50000000       0.50000000       0.33333333 </v>
   <v>       0.00000000       0.16666667       0.50000000 </v>
   <v>      -0.16666667       0.33333333      -0.16666667 </v>
   <v>       0.33333333       0.50000000       0.50000000 </v>
   <v>       0.50000000       0.00000000       0.16666667 </v>
   <v>      -0.33333333       0.16666667       0.00000000 </v>
   <v>       0.00000000      -0.33333333       0.16666667 </v>
   <v>       0.16666667       0.00000000      -0.33333333 </v>
   <v>       0.16666667       0.16666667       0.50000000 </v>
   <v>      -0.33333333       0.50000000      -0.33333333 </v>
   <v>       0.16666667      -0.33333333       0.00000000 </v>
   <v>       0.50000000      -0.16666667      -0.16666667 </v>
   <v>      -0.33333333      -0.33333333       0.50000000 </v>
   <v>       0.00000000       0.16666667      -0.33333333 </v>
   <v>      -0.16666667       0.50000000      -0.16666667 </v>
   <v>       0.50000000      -0.33333333      -0.33333333 </v>
   <v>      -0.33333333       0.00000000       0.16666667 </v>
   <v>      -0.16666667       0.16666667       0.00000000 </v>
   <v>       0.00000000      -0.16666667       0.16666667 </v>
   <v>       0.16666667       0.00000000      -0.16666667 </v>
   <v>       0.16666667       0.16666667       0.33333333 </v>
   <v>      -0.16666667      -0.33333333      -0.16666667 </v>
   <v>      -0.33333333      -0.16666667      -0.16666667 </v>
   <v>       0.33333333       0.33333333       0.00000000 </v>
   <v>       0.00000000       0.33333333       0.33333333 </v>
   <v>       0.33333333       0.00000000       0.33333333 </v>
   <v>       0.50000000       0.33333333       0.00000000 </v>
   <v>       0.00000000       0.50000000       0.33333333 </v>
   <v>       0.33333333       0.00000000       0.50000000 </v>
   <v>       0.33333333       0.33333333      -0.16666667 </v>
   <v>       0.50000000       0.16666667       0.50000000 </v>
   <v>       0.33333333       0.50000000       0.00000000 </v>
   <v>       0.16666667      -0.33333333      -0.33333333 </v>
   <v>       0.50000000       0.50000000       0.16666667 </v>
   <v>       0.00000000       0.33333333       0.50000000 </v>
   <v>      -0.33333333       0.16666667      -0.33333333 </v>
   <v>       0.16666667       0.50000000       0.50000000 </v>
   <v>       0.50000000       0.00000000       0.33333333 </v>
   <v>      -0.33333333       0.33333333       0.00000000 </v>
   <v>       0.00000000      -0.33333333       0.33333333 </v>
   <v>       0.33333333       0.00000000      -0.33333333 </v>
   <v>       0.33333333       0.33333333      -0.33333333 </v>
   <v>      -0.33333333       0.33333333      -0.33333333 </v>
   <v>       0.33333333      -0.33333333      -0.33333333 </v>
   <v>       0.50000000       0.50000000       0.00000000 </v>
   <v>       0.00000000       0.50000000       0.50000000 </v>
   <v>       0.50000000       0.00000000       0.50000000 </v>
   <v>       0.50000000       0.33333333       0.16666667 </v>
   <v>       0.16666667       0.50000000       0.33333333 </v>
   <v>       0.33333333       0.16666667       0.50000000 </v>
   <v>       0.33333333       0.16666667      -0.16666667 </v>
   <v>       0.50000000       0.16666667       0.33333333 </v>
   <v>       0.16666667      -0.33333333      -0.16666667 </v>
   <v>       0.16666667       0.33333333      -0.16666667 </v>
   <v>       0.16666667      -0.16666667      -0.33333333 </v>
   <v>       0.33333333       0.50000000       0.16666667 </v>
   <v>      -0.16666667       0.16666667      -0.33333333 </v>
   <v>      -0.33333333       0.16666667      -0.16666667 </v>
   <v>       0.16666667       0.33333333       0.50000000 </v>
   <v>      -0.33333333       0.33333333       0.16666667 </v>
   <v>       0.16666667      -0.33333333       0.33333333 </v>
   <v>       0.33333333       0.16666667      -0.33333333 </v>
   <v>      -0.33333333       0.33333333       0.50000000 </v>
   <v>       0.16666667       0.50000000      -0.16666667 </v>
   <v>       0.33333333      -0.16666667      -0.33333333 </v>
   <v>       0.50000000      -0.33333333       0.33333333 </v>
   <v>      -0.16666667       0.16666667       0.50000000 </v>
   <v>      -0.33333333       0.33333333      -0.16666667 </v>
   <v>       0.33333333       0.50000000      -0.33333333 </v>
   <v>       0.50000000      -0.16666667       0.16666667 </v>
   <v>      -0.16666667      -0.33333333       0.33333333 </v>
   <v>      -0.33333333       0.50000000       0.16666667 </v>
   <v>       0.16666667      -0.33333333       0.50000000 </v>
   <v>       0.50000000       0.16666667      -0.33333333 </v>
   <v>       0.50000000       0.33333333      -0.16666667 </v>
   <v>      -0.33333333       0.16666667       0.50000000 </v>
   <v>       0.16666667       0.50000000      -0.33333333 </v>
  </varray>
  <varray name="weights" >
   <v>       0.00462963 </v>
   <v>       0.00925926 </v>
   <v>       0.00925926 </v>
   <v>       0.00925926 </v>
   <v>       0.00925926 </v>
   <v>       0.00925926 </v>
   <v>       0.00925926 </v>
   <v>       0.00925926 </v>
   <v>       0.00925926 </v>
   <v>       0.00462963 </v>
   <v>       0.00462963 </v>
   <v>       0.00462963 </v>
   <v>       0.00462963 </v>
   <v>       0.00925926 </v>
   <v>       0.00925926 </v>
   <v>       0.00925926 </v>
   <v>       0.00925926 </v>
   <v>       0.00925926 </v>
   <v>       0.00925926 </v>
   <v>       0.00925926 </v>
   <v>       0.00925926 </v>
   <v>       0.00925926 </v>
   <v>       0.00925926 </v>
   <v>       0.00925926 </v>
   <v>       0.00925926 </v>
   <v>       0.00925926 </v>
   <v>       0.00925926 </v>
   <v>       0.00925926 </v>
   <v>       0.00925926 </v>
   <v>       0.00925926 </v>
   <v>       0.00925926 </v>
   <v>       0.00925926 </v>
   <v>       0.00925926 </v>
   <v>       0.00925926 </v>
   <v>       0.00925926 </v>
   <v>       0.00925926 </v>
   <v>       0.00925926 </v>
   <v>       0.00925926 </v>
   <v>       0.00925926 </v>
   <v>       0.00925926 </v>
   <v>       0.00925926 </v>
   <v>       0.00925926 </v>
   <v>       0.00925926 </v>
   <v>       0.00925926 </v>
   <v>       0.00925926 </v>
   <v>       0.00925926 </v>
   <v>       0.00925926 </v>
   <v>       0.00925926 </v>
   <v>       0.00925926 </v>
   <v>       0.00925926 </v>
   <v>       0.00925926 </v>
   <v>       0.00925926 </v>
   <v>       0.00925926 </v>
   <v>       0.00925926 </v>
   <v>       0.00925926 </v>
   <v>       0.00925926 </v>
   <v>       0.00925926 </v>
   <v>       0.00925926 </v>
   <v>       0.00925926 </v>
   <v>       0.00925926 </v>
   <v>       0.00925926 </v>
   <v>       0.00925926 </v>
   <v>       0.00925926 </v>
   <v>       0.00925926 </v>
   <v>       0.00925926 </v>
   <v>       0.00925926 </v>
   <v>       0.00925926 </v>
   <v>       0.00925926 </v>
   <v>       0.00925926 </v>
   <v>       0.00925926 </v>
   <v>       0.00925926 </v>
   <v>       0.00925926 </v>
   <v>       0.00925926 </v>
   <v>       0.00925926 </v>
   <v>       0.00925926 </v>
   <v>       0.00925926 </v>
   <v>       0.00925926 </v>
   <v>       0.00925926 </v>
   <v>       0.00925926 </v>
   <v>       0.00462963 </v>
   <v>       0.00462963 </v>
   <v>       0.00462963 </v>
   <v>       0.00925926 </v>
   <v>       0.00925926 </v>
   <v>       0.00925926 </v>
   <v>       0.00925926 </v>
   <v>       0.00925926 </v>
   <v>       0.00925926 </v>
   <v>       0.00925926 </v>
   <v>       0.00925926 </v>
   <v>       0.00925926 </v>
   <v>       0.00925926 </v>
   <v>       0.00925926 </v>
   <v>       0.00925926 </v>
   <v>       0.00925926 </v>
   <v>       0.00925926 </v>
   <v>       0.00925926 </v>
   <v>       0.00925926 </v>
   <v>       0.00925926 </v>
   <v>       0.00925926 </v>
   <v>       0.00925926 </v>
   <v>       0.00925926 </v>
   <v>       0.00925926 </v>
   <v>       0.00925926 </v>
   <v>       0.00925926 </v>
   <v>       0.00925926 </v>
   <v>       0.00925926 </v>
   <v>       0.00925926 </v>
   <v>       0.00925926 </v>
   <v>       0.00925926 </v>
   <v>       0.00925926 </v>
   <v>       0.00925926 </v>
  </varray>
 </kpoints>
 <parameters>
  <separator name="general" >
   <i type="string" name="SYSTEM">unknown system</i>
   <i type="logical" name="LCOMPAT"> F  </i>
  </separator>
  <separator name="electronic" >
   <i type="string" name="PREC">normal</i>
   <i name="ENMAX">    420.00000000</i>
   <i name="ENAUG">    358.96600000</i>
   <i name="EDIFF">      0.00010000</i>
   <i type="int" name="IALGO">    38</i>
   <i type="int" name="IWAVPR">    10</i>
   <i type="int" name="NBANDS">    12</i>
   <i type="int" name="NBANDSLOW">    -1</i>
   <i type="int" name="NBANDSHIGH">    -1</i>
   <i name="NELECT">     10.00000000</i>
   <i type="int" name="TURBO">     0</i>
   <i type="int" name="IRESTART">     0</i>
   <i type="int" name="NREBOOT">     0</i>
   <i type="int" name="NMIN">     0</i>
   <i name="EREF">      0.00000000</i>
   <separator name="electronic smearing" >
    <i type="int" name="ISMEAR">     0</i>
    <i name="SIGMA">      0.05000000</i>
    <i name="KSPACING">      0.50000000</i>
    <i type="logical" name="KGAMMA"> T  </i>
    <i type="logical" name="KBLOWUP"> T  </i>
   </separator>
   <separator name="electronic projectors" >
    <i type="logical" name="LREAL"> F  </i>
    <v name="ROPT">      0.00000000</v>
    <i type="int" name="LMAXPAW">  -100</i>
    <i type="int" name="LMAXMIX">     2</i>
    <i type="logical" name="NLSPLINE"> F  </i>
   </separator>
   <separator name="electronic startup" >
    <i type="int" name="ISTART">     0</i>
    <i type="int" name="ICHARG">     2</i>
    <i type="int" name="INIWAV">     1</i>
   </separator>
   <separator name="electronic spin" >
    <i type="int" name="ISPIN">     1</i>
    <i type="logical" name="LNONCOLLINEAR"> F  </i>
    <v name="MAGMOM">      1.00000000</v>
    <i name="NUPDOWN">     -1.00000000</i>
    <i type="logical" name="LSORBIT"> F  </i>
    <v name="SAXIS">      0.00000000      0.00000000      1.00000000</v>
    <i type="logical" name="LSPIRAL"> F  </i>
    <v name="QSPIRAL">      0.00000000      0.00000000      0.00000000</v>
    <i type="logical" name="LZEROZ"> F  </i>
   </separator>
   <separator name="electronic exchange-correlation" >
    <i type="logical" name="LASPH"> F  </i>
    <i type="logical" name="LMETAGGA"> F  </i>
   </separator>
   <separator name="electronic convergence" >
    <i type="int" name="NELM">    60</i>
    <i type="int" name="NELMDL">    -5</i>
    <i type="int" name="NELMIN">     4</i>
    <i name="ENINI">    420.00000000</i>
    <separator name="electronic convergence detail" >
     <i type="logical" name="LDIAG"> T  </i>
     <i type="logical" name="LSUBROT"> F  </i>
     <i name="WEIMIN">      0.00000000</i>
     <i name="EBREAK">      0.00000208</i>
     <i name="DEPER">      0.30000000</i>
     <i type="int" name="NRMM">     4</i>
     <i name="TIME">      0.40000000</i>
    </separator>
   </separator>
   <separator name="electronic mixer" >
    <i name="AMIX">      0.40000000</i>
    <i name="BMIX">      1.00000000</i>
    <i name="AMIN">      0.10000000</i>
    <i name="AMIX_MAG">      1.60000000</i>
    <i name="BMIX_MAG">      1.00000000</i>
    <separator name="electronic mixer details" >
     <i type="int" name="IMIX">     4</i>
     <i type="logical" name="MIXFIRST"> F  </i>
     <i type="int" name="MAXMIX">   -45</i>
     <i name="WC">    100.00000000</i>
     <i type="int" name="INIMIX">     1</i>
     <i type="int" name="MIXPRE">     1</i>
     <i type="int" name="MREMOVE">     5</i>
    </separator>
   </separator>
   <separator name="electronic dipolcorrection" >
    <i type="logical" name="LDIPOL"> F  </i>
    <i type="logical" name="LMONO"> F  </i>
    <i type="int" name="IDIPOL">     0</i>
    <i name="EPSILON">      1.00000000</i>
    <v name="DIPOL">   -100.00000000   -100.00000000   -100.00000000</v>
    <i name="EFIELD">      0.00000000</i>
   </separator>
  </separator>
  <separator name="grids" >
   <i type="int" name="NGX">    16</i>
   <i type="int" name="NGY">    16</i>
   <i type="int" name="NGZ">    16</i>
   <i type="int" name="NGXF">    32</i>
   <i type="int" name="NGYF">    32</i>
   <i type="int" name="NGZF">    32</i>
   <i type="logical" name="ADDGRID"> F  </i>
  </separator>
  <separator name="ionic" >
   <i type="int" name="NSW">     0</i>
   <i type="int" name="IBRION">    -1</i>
   <i type="int" name="MDALGO">     0</i>
   <i type="int" name="ISIF">     0</i>
   <i name="PSTRESS">      0.00000000</i>
   <i name="EDIFFG">     -0.03000000</i>
   <i type="int" name="NFREE">     1</i>
   <i name="POTIM">      0.50000000</i>
   <i name="SMASS">     -3.00000000</i>
   <i name="SCALEE">      1.00000000</i>
  </separator>
  <separator name="ionic md" >
   <i name="TEBEG">      0.00010000</i>
   <i name="TEEND">      0.00010000</i>
   <i type="int" name="NBLOCK">     1</i>
   <i type="int" name="KBLOCK">     1</i>
   <i type="int" name="NPACO">   256</i>
   <i name="APACO">     16.00000000</i>
  </separator>
  <separator name="symmetry" >
   <i type="int" name="ISYM">     0</i>
   <i name="SYMPREC">      0.00001000</i>
  </separator>
  <separator name="dos" >
   <i type="int" name="LORBIT">    11</i>
   <v name="RWIGS">     -1.00000000</v>
   <i type="int" name="NEDOS">   301</i>
   <i name="EMIN">     10.00000000</i>
   <i name="EMAX">    -10.00000000</i>
   <i name="EFERMI">      0.00000000</i>
  </separator>
  <separator name="writing" >
   <i type="int" name="NWRITE">     2</i>
   <i type="logical" name="LWAVE"> F  </i>
   <i type="logical" name="LDOWNSAMPLE"> F  </i>
   <i type="logical" name="LCHARG"> T  </i>
   <i type="logical" name="LPARD"> F  </i>
   <i type="logical" name="LVTOT"> F  </i>
   <i type="logical" name="LVHAR"> F  </i>
   <i type="logical" name="LELF"> F  </i>
   <i type="logical" name="LOPTICS"> F  </i>
   <v name="STM">      0.00000000      0.00000000      0.00000000      0.00000000      0.00000000      0.00000000      0.00000000</v>
  </separator>
  <separator name="performance" >
   <i type="int" name="NPAR">     4</i>
   <i type="int" name="NSIM">     4</i>
   <i type="int" name="NBLK">    -1</i>
   <i type="logical" name="LPLANE"> T  </i>
   <i type="logical" name="LSCALAPACK"> T  </i>
   <i type="logical" name="LSCAAWARE"> F  </i>
   <i type="logical" name="LSCALU"> F  </i>
   <i type="logical" name="LASYNC"> F  </i>
   <i type="logical" name="LORBITALREAL"> F  </i>
  </separator>
  <separator name="miscellaneous" >
   <i type="int" name="IDIOT">     3</i>
   <i type="int" name="PHON_NSTRUCT">    -1</i>
   <i type="logical" name="LMUSIC"> F  </i>
   <v name="POMASS">    195.08000000</v>
   <v name="DARWINR">      0.00000000</v>
   <v name="DARWINV">      1.00000000</v>
   <i type="logical" name="LCORR"> T  </i>
  </separator>
  <i type="logical" name="GGA_COMPAT"> T  </i>
  <i type="logical" name="LBERRY"> F  </i>
  <i type="int" name="ICORELEVEL">     0</i>
  <i type="logical" name="LDAU"> F  </i>
  <i type="int" name="I_CONSTRAINED_M">     0</i>
  <separator name="electronic exchange-correlation" >
   <i type="string" name="GGA">RP</i>
   <i type="int" name="VOSKOWN">     0</i>
   <i type="logical" name="LHFCALC"> F  </i>
   <i type="string" name="PRECFOCK"></i>
   <i type="logical" name="LSYMGRAD"> F  </i>
   <i type="logical" name="LHFONE"> F  </i>
   <i type="logical" name="LRHFCALC"> F  </i>
   <i type="logical" name="LTHOMAS"> F  </i>
   <i type="logical" name="LMODELHF"> F  </i>
   <i type="logical" name="LFOCKACE"> F  </i>
   <i name="ENCUT4O">     -1.00000000</i>
   <i type="int" name="EXXOEP">     0</i>
   <i type="int" name="FOURORBIT">     0</i>
   <i name="AEXX">      0.00000000</i>
   <i name="HFALPHA">      0.00000000</i>
   <i name="MCALPHA">      0.00000000</i>
   <i name="ALDAX">      1.00000000</i>
   <i name="AGGAX">      1.00000000</i>
   <i name="ALDAC">      1.00000000</i>
   <i name="AGGAC">      1.00000000</i>
   <i type="int" name="NKREDX">     1</i>
   <i type="int" name="NKREDY">     1</i>
   <i type="int" name="NKREDZ">     1</i>
   <i type="logical" name="SHIFTRED"> F  </i>
   <i type="logical" name="ODDONLY"> F  </i>
   <i type="logical" name="EVENONLY"> F  </i>
   <i type="int" name="LMAXFOCK">     0</i>
   <i type="int" name="NMAXFOCKAE">     0</i>
   <i type="logical" name="LFOCKAEDFT"> F  </i>
   <i name="HFSCREEN">      0.00000000</i>
   <i name="HFSCREENC">      0.00000000</i>
   <i type="int" name="NBANDSGWLOW">     0</i>
  </separator>
  <separator name="vdW DFT" >
   <i type="logical" name="LUSE_VDW"> F  </i>
   <i name="Zab_VDW">     -0.84910000</i>
   <i name="PARAM1">      0.12340000</i>
   <i name="PARAM2">      1.00000000</i>
   <i name="PARAM3">      0.00000000</i>
  </separator>
  <separator name="model GW" >
   <i type="int" name="MODEL_GW">     0</i>
   <i name="MODEL_EPS0">     10.85300735</i>
   <i name="MODEL_ALPHA">      1.00000000</i>
  </separator>
  <separator name="linear response parameters" >
   <i type="logical" name="LEPSILON"> F  </i>
   <i type="logical" name="LRPA"> F  </i>
   <i type="logical" name="LNABLA"> F  </i>
   <i type="logical" name="LVEL"> F  </i>
   <i type="int" name="KINTER">     0</i>
   <i name="CSHIFT">      0.10000000</i>
   <i name="OMEGAMAX">     -1.00000000</i>
   <i name="DEG_THRESHOLD">      0.00200000</i>
   <i name="RTIME">     -0.10000000</i>
   <i name="WPLASMAI">      0.00000000</i>
   <v name="DFIELD">      0.00000000      0.00000000      0.00000000</v>
   <v name="WPLASMA">      0.00000000      0.00000000      0.00000000      0.00000000      0.00000000      0.00000000      0.00000000      0.00000000      0.00000000</v>
  </separator>
  <separator name="orbital magnetization" >
   <i type="logical" name="NUCIND"> F  </i>
   <v name="MAGPOS">      0.00000000      0.00000000      0.00000000</v>
   <i type="logical" name="LNICSALL"> T  </i>
   <i type="logical" name="ORBITALMAG"> F  </i>
   <i type="logical" name="LMAGBLOCH"> F  </i>
   <i type="logical" name="LCHIMAG"> F  </i>
   <i type="logical" name="LGAUGE"> T  </i>
   <i type="int" name="MAGATOM">     0</i>
   <v name="MAGDIPOL">      0.00000000      0.00000000      0.00000000</v>
   <v name="AVECCONST">      0.00000000      0.00000000      0.00000000</v>
  </separator>
  <separator name="response functions" >
   <i type="logical" name="LFINITE_TEMPERATURE"> F  </i>
   <i type="logical" name="LADDER"> F  </i>
   <i type="logical" name="LRPAFORCE"> F  </i>
   <i type="logical" name="LFXC"> F  </i>
   <i type="logical" name="LHARTREE"> T  </i>
   <i type="int" name="IBSE">     0</i>
   <v type="int" name="KPOINT">    -1     0     0     0</v>
   <i type="logical" name="LTCTC"> F  </i>
   <i type="logical" name="LTCTE"> F  </i>
   <i type="logical" name="LTETE"> F  </i>
   <i type="logical" name="LTRIPLET"> F  </i>
   <i type="logical" name="LFXCEPS"> F  </i>
   <i type="logical" name="LFXHEG"> F  </i>
   <i type="int" name="NATURALO">     2</i>
   <i type="logical" name="LHOLEGF"> F  </i>
   <i type="logical" name="L2ORDER"> F  </i>
   <i type="logical" name="LDMP1"> F  </i>
   <i type="logical" name="LMP2LT"> F  </i>
   <i type="logical" name="LSMP2LT"> F  </i>
   <i type="logical" name="LGWLF"> F  </i>
   <i name="ENCUTGW">     -2.00000000</i>
   <i name="ENCUTGWSOFT">     -2.00000000</i>
   <i name="ENCUTLF">     -1.00000000</i>
   <i type="logical" name="LESF_SPLINES"> F  </i>
   <i type="int" name="LMAXMP2">    -1</i>
   <i name="SCISSOR">      0.00000000</i>
   <i type="int" name="NOMEGA">     0</i>
   <i type="int" name="NOMEGAR">     0</i>
   <i type="int" name="NBANDSGW">    -1</i>
   <i type="int" name="NBANDSO">    -1</i>
   <i type="int" name="NBANDSV">    -1</i>
   <i type="int" name="NELM">    60</i>
   <i type="int" name="NELMHF">     1</i>
   <i type="int" name="DIM">     3</i>
   <i type="int" name="IESPILON">     4</i>
   <i type="int" name="ANTIRES">     0</i>
   <i name="OMEGAMAX">    -30.00000000</i>
   <i name="OMEGAMIN">    -30.00000000</i>
   <i name="OMEGATL">   -200.00000000</i>
   <i type="int" name="OMEGAGRID">     0</i>
   <i name="CSHIFT">     -0.10000000</i>
   <i type="logical" name="LSELFENERGY"> F  </i>
   <i type="logical" name="LSPECTRAL"> F  </i>
   <i type="logical" name="LSPECTRALGW"> F  </i>
   <i type="logical" name="LSINGLES"> F  </i>
   <i type="logical" name="LFERMIGW"> F  </i>
   <i type="logical" name="ODDONLYGW"> F  </i>
   <i type="logical" name="EVENONLYGW"> F  </i>
   <i type="int" name="NKREDLFX">     1</i>
   <i type="int" name="NKREDLFY">     1</i>
   <i type="int" name="NKREDLFZ">     1</i>
   <i type="int" name="MAXMEM">  2800</i>
   <i type="int" name="TELESCOPE">     0</i>
   <i type="int" name="NTAUPAR">    -1</i>
   <i type="int" name="NOMEGAPAR">    -1</i>
   <i name="DAMP_NEWTON">      0.80000001</i>
   <i name="LAMBDA">      1.00000000</i>
  </separator>
  <separator name="External order field" >
   <i name="OFIELD_KAPPA">      0.00000000</i>
   <v name="OFIELD_K">      0.00000000      0.00000000      0.00000000</v>
   <i name="OFIELD_Q6_NEAR">      0.00000000</i>
   <i name="OFIELD_Q6_FAR">      0.00000000</i>
   <i name="OFIELD_A">      0.00000000</i>
  </separator>
 </parameters>
 <atominfo>
  <atoms>       1 </atoms>
  <types>       1 </types>
  <array name="atoms" >
   <dimension dim="1">ion</dimension>
   <field type="string">element</field>
   <field type="int">atomtype</field>
   <set>
    <rc><c>Pt</c><c>   1</c></rc>
   </set>
  </array>
  <array name="atomtypes" >
   <dimension dim="1">type</dimension>
   <field type="int">atomspertype</field>
   <field type="string">element</field>
   <field>mass</field>
   <field>valence</field>
   <field type="string">pseudopotential</field>
   <set>
    <rc><c>   1</c><c>Pt</c><c>    195.08000000</c><c>     10.00000000</c><c>  PAW_PBE Pt 04Feb2005                  </c></rc>
   </set>
  </array>
 </atominfo>
 <structure name="initialpos" >
  <crystal>
   <varray name="basis" >
    <v>       2.55173500       0.00000500       1.47325900 </v>
    <v>       0.85058400       2.40579500       1.47325900 </v>
    <v>       0.00000700       0.00000500       2.94649600 </v>
   </varray>
   <i name="volume">     18.08834559 </i>
   <varray name="rec_basis" >
    <v>       0.39189090      -0.13855507      -0.00000070 </v>
    <v>      -0.00000041       0.41566359      -0.00000071 </v>
    <v>      -0.19594671      -0.13855529       0.33938687 </v>
   </varray>
  </crystal>
  <varray name="positions" >
   <v>       0.00000000       0.00000000       0.00000000 </v>
  </varray>
 </structure>
 <calculation>
  <scstep>
   <time name="dav">    0.44    0.44</time>
   <time name="total">    0.45    0.46</time>
   <energy>
    <i name="alphaZ">     52.55221741 </i>
    <i name="ewald">   -792.19617298 </i>
    <i name="hartreedc">    -88.32847720 </i>
    <i name="XCdc">      2.78239656 </i>
    <i name="pawpsdc">    696.70595042 </i>
    <i name="pawaedc">   -667.45827301 </i>
    <i name="eentropy">     -0.00085916 </i>
    <i name="bandstr">    101.61163829 </i>
    <i name="atom">    728.31920932 </i>
    <i name="e_fr_energy">     33.98762965 </i>
    <i name="e_wo_entrp">     33.98848881 </i>
    <i name="e_0_energy">     33.98805923 </i>
   </energy>
  </scstep>
  <scstep>
   <time name="dav">    0.47    0.47</time>
   <time name="total">    0.47    0.48</time>
   <energy>
    <i name="e_fr_energy">     -5.18756176 </i>
    <i name="e_wo_entrp">     -5.18527666 </i>
    <i name="e_0_energy">     -5.18641921 </i>
   </energy>
  </scstep>
  <scstep>
   <time name="dav">    0.49    0.49</time>
   <time name="total">    0.49    0.50</time>
   <energy>
    <i name="e_fr_energy">     -5.70624448 </i>
    <i name="e_wo_entrp">     -5.70399223 </i>
    <i name="e_0_energy">     -5.70511835 </i>
   </energy>
  </scstep>
  <scstep>
   <time name="dav">    0.49    0.50</time>
   <time name="total">    0.49    0.50</time>
   <energy>
    <i name="e_fr_energy">     -5.70854815 </i>
    <i name="e_wo_entrp">     -5.70629363 </i>
    <i name="e_0_energy">     -5.70742089 </i>
   </energy>
  </scstep>
  <scstep>
   <time name="dav">    0.50    0.50</time>
   <time name="total">    0.51    0.51</time>
   <energy>
    <i name="e_fr_energy">     -5.70856977 </i>
    <i name="e_wo_entrp">     -5.70631523 </i>
    <i name="e_0_energy">     -5.70744250 </i>
   </energy>
  </scstep>
  <scstep>
   <time name="dav">    0.45    0.45</time>
   <time name="total">    0.47    0.47</time>
   <energy>
    <i name="e_fr_energy">     -5.38130449 </i>
    <i name="e_wo_entrp">     -5.37794261 </i>
    <i name="e_0_energy">     -5.37962355 </i>
   </energy>
  </scstep>
  <scstep>
   <time name="dav">    0.56    0.56</time>
   <time name="total">    0.57    0.58</time>
   <energy>
    <i name="e_fr_energy">     -5.36796118 </i>
    <i name="e_wo_entrp">     -5.36467049 </i>
    <i name="e_0_energy">     -5.36631584 </i>
   </energy>
  </scstep>
  <scstep>
   <time name="dav">    0.46    0.46</time>
   <time name="total">    0.47    0.48</time>
   <energy>
    <i name="e_fr_energy">     -5.36686040 </i>
    <i name="e_wo_entrp">     -5.36358893 </i>
    <i name="e_0_energy">     -5.36522466 </i>
   </energy>
  </scstep>
  <scstep>
   <time name="dav">    0.40    0.41</time>
   <time name="total">    0.41    0.41</time>
   <energy>
    <i name="alphaZ">     52.55221741 </i>
    <i name="ewald">   -792.19617298 </i>
    <i name="hartreedc">    -78.40318980 </i>
    <i name="XCdc">      2.44230117 </i>
    <i name="pawpsdc">    818.19961679 </i>
    <i name="pawaedc">   -791.06273040 </i>
    <i name="eentropy">     -0.00327284 </i>
    <i name="bandstr">     54.78525089 </i>
    <i name="atom">    728.31920932 </i>
    <i name="e_fr_energy">     -5.36677045 </i>
    <i name="e_wo_entrp">     -5.36349761 </i>
    <i name="e_0_energy">     -5.36513403 </i>
   </energy>
  </scstep>
  <structure>
   <crystal>
    <varray name="basis" >
     <v>       2.55173500       0.00000500       1.47325900 </v>
     <v>       0.85058400       2.40579500       1.47325900 </v>
     <v>       0.00000700       0.00000500       2.94649600 </v>
    </varray>
    <i name="volume">     18.08834559 </i>
    <varray name="rec_basis" >
     <v>       0.39189090      -0.13855507      -0.00000070 </v>
     <v>      -0.00000041       0.41566359      -0.00000071 </v>
     <v>      -0.19594671      -0.13855529       0.33938687 </v>
    </varray>
   </crystal>
   <varray name="positions" >
    <v>       0.00000000       0.00000000       0.00000000 </v>
   </varray>
  </structure>
  <varray name="forces" >
   <v>       0.00000486      -0.00000078       0.00000244 </v>
  </varray>
  <energy>
   <i name="e_fr_energy">     -5.36677045 </i>
   <i name="e_wo_entrp">     -5.36349761 </i>
   <i name="e_0_energy">     -5.36513403 </i>
  </energy>
  <time name="totalsc">    4.43    4.45</time>
  <eigenvalues>
   <array>
    <dimension dim="1">band</dimension>
    <dimension dim="2">kpoint</dimension>
    <dimension dim="3">spin</dimension>
    <field>eigene</field>
    <field>occ</field>
    <set>
     <set comment="spin 1">
      <set comment="kpoint 1">
       <r>   -0.0995    1.0000 </r>
       <r>    5.3819    1.0000 </r>
       <r>    5.3820    1.0000 </r>
       <r>    5.3820    1.0000 </r>
       <r>    6.9684    1.0000 </r>
       <r>    6.9684    1.0000 </r>
       <r>   23.1409    0.0000 </r>
       <r>   27.1182    0.0000 </r>
       <r>   27.1185    0.0000 </r>
       <r>   27.1185    0.0000 </r>
       <r>   31.8347    0.0000 </r>
       <r>   36.6318    0.0000 </r>
      </set>
      <set comment="kpoint 2">
       <r>    0.7908    1.0000 </r>
       <r>    5.1297    1.0000 </r>
       <r>    5.6312    1.0000 </r>
       <r>    5.6313    1.0000 </r>
       <r>    6.9063    1.0000 </r>
       <r>    6.9063    1.0000 </r>
       <r>   23.1462    0.0000 </r>
       <r>   24.2553    0.0000 </r>
       <r>   28.1879    0.0000 </r>
       <r>   28.1881    0.0000 </r>
       <r>   30.9265    0.0000 </r>
       <r>   33.1293    0.0000 </r>
      </set>
      <set comment="kpoint 3">
       <r>    0.7908    1.0000 </r>
       <r>    5.1297    1.0000 </r>
       <r>    5.6312    1.0000 </r>
       <r>    5.6313    1.0000 </r>
       <r>    6.9063    1.0000 </r>
       <r>    6.9063    1.0000 </r>
       <r>   23.1462    0.0000 </r>
       <r>   24.2553    0.0000 </r>
       <r>   28.1879    0.0000 </r>
       <r>   28.1881    0.0000 </r>
       <r>   30.9265    0.0000 </r>
       <r>   33.1292    0.0000 </r>
      </set>
      <set comment="kpoint 4">
       <r>    0.7908    1.0000 </r>
       <r>    5.1297    1.0000 </r>
       <r>    5.6312    1.0000 </r>
       <r>    5.6313    1.0000 </r>
       <r>    6.9063    1.0000 </r>
       <r>    6.9063    1.0000 </r>
       <r>   23.1462    0.0000 </r>
       <r>   24.2553    0.0000 </r>
       <r>   28.1879    0.0000 </r>
       <r>   28.1881    0.0000 </r>
       <r>   30.9265    0.0000 </r>
       <r>   33.1292    0.0000 </r>
      </set>
      <set comment="kpoint 5">
       <r>    0.7907    1.0000 </r>
       <r>    5.1297    1.0000 </r>
       <r>    5.6313    1.0000 </r>
       <r>    5.6313    1.0000 </r>
       <r>    6.9063    1.0000 </r>
       <r>    6.9063    1.0000 </r>
       <r>   23.1459    0.0000 </r>
       <r>   24.2553    0.0000 </r>
       <r>   28.1881    0.0000 </r>
       <r>   28.1881    0.0000 </r>
       <r>   30.9265    0.0000 </r>
       <r>   33.1293    0.0000 </r>
      </set>
      <set comment="kpoint 6">
       <r>    2.3499    1.0000 </r>
       <r>    5.5422    1.0000 </r>
       <r>    5.5423    1.0000 </r>
       <r>    5.8458    1.0000 </r>
       <r>    7.5760    1.0000 </r>
       <r>    7.5760    1.0000 </r>
       <r>   17.2397    0.0000 </r>
       <r>   23.5489    0.0000 </r>
       <r>   27.6010    0.0000 </r>
       <r>   27.6012    0.0000 </r>
       <r>   31.6037    0.0000 </r>
       <r>   32.0379    0.0000 </r>
      </set>
      <set comment="kpoint 7">
       <r>    2.3499    1.0000 </r>
       <r>    5.5422    1.0000 </r>
       <r>    5.5423    1.0000 </r>
       <r>    5.8458    1.0000 </r>
       <r>    7.5760    1.0000 </r>
       <r>    7.5760    1.0000 </r>
       <r>   17.2397    0.0000 </r>
       <r>   23.5489    0.0000 </r>
       <r>   27.6010    0.0000 </r>
       <r>   27.6011    0.0000 </r>
       <r>   31.6037    0.0000 </r>
       <r>   32.0379    0.0000 </r>
      </set>
      <set comment="kpoint 8">
       <r>    2.3499    1.0000 </r>
       <r>    5.5422    1.0000 </r>
       <r>    5.5423    1.0000 </r>
       <r>    5.8458    1.0000 </r>
       <r>    7.5760    1.0000 </r>
       <r>    7.5760    1.0000 </r>
       <r>   17.2397    0.0000 </r>
       <r>   23.5489    0.0000 </r>
       <r>   27.6010    0.0000 </r>
       <r>   27.6011    0.0000 </r>
       <r>   31.6037    0.0000 </r>
       <r>   32.0379    0.0000 </r>
      </set>
      <set comment="kpoint 9">
       <r>    2.3499    1.0000 </r>
       <r>    5.5422    1.0000 </r>
       <r>    5.5422    1.0000 </r>
       <r>    5.8457    1.0000 </r>
       <r>    7.5760    1.0000 </r>
       <r>    7.5760    1.0000 </r>
       <r>   17.2395    0.0000 </r>
       <r>   23.5489    0.0000 </r>
       <r>   27.6012    0.0000 </r>
       <r>   27.6012    0.0000 </r>
       <r>   31.6037    0.0000 </r>
       <r>   32.0380    0.0000 </r>
      </set>
      <set comment="kpoint 10">
       <r>    2.5894    1.0000 </r>
       <r>    5.3497    1.0000 </r>
       <r>    5.3498    1.0000 </r>
       <r>    8.1894    0.6280 </r>
       <r>    8.1895    0.6275 </r>
       <r>    8.4641    0.0000 </r>
       <r>   12.8034    0.0000 </r>
       <r>   22.6634    0.0000 </r>
       <r>   25.8610    0.0000 </r>
       <r>   25.8611    0.0000 </r>
       <r>   33.6078    0.0000 </r>
       <r>   33.6078    0.0000 </r>
      </set>
      <set comment="kpoint 11">
       <r>    2.5894    1.0000 </r>
       <r>    5.3497    1.0000 </r>
       <r>    5.3498    1.0000 </r>
       <r>    8.1894    0.6279 </r>
       <r>    8.1895    0.6275 </r>
       <r>    8.4641    0.0000 </r>
       <r>   12.8034    0.0000 </r>
       <r>   22.6634    0.0000 </r>
       <r>   25.8610    0.0000 </r>
       <r>   25.8611    0.0000 </r>
       <r>   33.6078    0.0000 </r>
       <r>   33.6078    0.0000 </r>
      </set>
      <set comment="kpoint 12">
       <r>    2.5894    1.0000 </r>
       <r>    5.3497    1.0000 </r>
       <r>    5.3498    1.0000 </r>
       <r>    8.1894    0.6279 </r>
       <r>    8.1895    0.6275 </r>
       <r>    8.4641    0.0000 </r>
       <r>   12.8034    0.0000 </r>
       <r>   22.6634    0.0000 </r>
       <r>   25.8610    0.0000 </r>
       <r>   25.8611    0.0000 </r>
       <r>   33.6078    0.0000 </r>
       <r>   33.6078    0.0000 </r>
      </set>
      <set comment="kpoint 13">
       <r>    2.5894    1.0000 </r>
       <r>    5.3498    1.0000 </r>
       <r>    5.3498    1.0000 </r>
       <r>    8.1894    0.6279 </r>
       <r>    8.1894    0.6279 </r>
       <r>    8.4640    0.0000 </r>
       <r>   12.8033    0.0000 </r>
       <r>   22.6635    0.0000 </r>
       <r>   25.8612    0.0000 </r>
       <r>   25.8612    0.0000 </r>
       <r>   33.6079    0.0000 </r>
       <r>   33.6079    0.0000 </r>
      </set>
      <set comment="kpoint 14">
       <r>    1.0981    1.0000 </r>
       <r>    4.7645    1.0000 </r>
       <r>    5.9557    1.0000 </r>
       <r>    5.9558    1.0000 </r>
       <r>    6.3299    1.0000 </r>
       <r>    7.2450    1.0000 </r>
       <r>   24.6514    0.0000 </r>
       <r>   25.2721    0.0000 </r>
       <r>   25.9156    0.0000 </r>
       <r>   25.9158    0.0000 </r>
       <r>   30.6553    0.0000 </r>
       <r>   33.1434    0.0000 </r>
      </set>
      <set comment="kpoint 15">
       <r>    1.0981    1.0000 </r>
       <r>    4.7645    1.0000 </r>
       <r>    5.9557    1.0000 </r>
       <r>    5.9558    1.0000 </r>
       <r>    6.3299    1.0000 </r>
       <r>    7.2450    1.0000 </r>
       <r>   24.6514    0.0000 </r>
       <r>   25.2721    0.0000 </r>
       <r>   25.9156    0.0000 </r>
       <r>   25.9158    0.0000 </r>
       <r>   30.6553    0.0000 </r>
       <r>   33.1434    0.0000 </r>
      </set>
      <set comment="kpoint 16">
       <r>    1.0981    1.0000 </r>
       <r>    4.7645    1.0000 </r>
       <r>    5.9557    1.0000 </r>
       <r>    5.9558    1.0000 </r>
       <r>    6.3299    1.0000 </r>
       <r>    7.2450    1.0000 </r>
       <r>   24.6514    0.0000 </r>
       <r>   25.2721    0.0000 </r>
       <r>   25.9156    0.0000 </r>
       <r>   25.9158    0.0000 </r>
       <r>   30.6553    0.0000 </r>
       <r>   33.1434    0.0000 </r>
      </set>
      <set comment="kpoint 17">
       <r>    2.6353    1.0000 </r>
       <r>    4.5104    1.0000 </r>
       <r>    5.4926    1.0000 </r>
       <r>    6.2027    1.0000 </r>
       <r>    7.4504    1.0000 </r>
       <r>    7.7867    1.0000 </r>
       <r>   19.6812    0.0000 </r>
       <r>   24.4178    0.0000 </r>
       <r>   24.5419    0.0000 </r>
       <r>   26.3440    0.0000 </r>
       <r>   30.1092    0.0000 </r>
       <r>   33.0998    0.0000 </r>
      </set>
      <set comment="kpoint 18">
       <r>    2.6353    1.0000 </r>
       <r>    4.5104    1.0000 </r>
       <r>    5.4926    1.0000 </r>
       <r>    6.2027    1.0000 </r>
       <r>    7.4504    1.0000 </r>
       <r>    7.7867    1.0000 </r>
       <r>   19.6812    0.0000 </r>
       <r>   24.4178    0.0000 </r>
       <r>   24.5419    0.0000 </r>
       <r>   26.3440    0.0000 </r>
       <r>   30.1092    0.0000 </r>
       <r>   33.0999    0.0000 </r>
      </set>
      <set comment="kpoint 19">
       <r>    2.6353    1.0000 </r>
       <r>    4.5104    1.0000 </r>
       <r>    5.4926    1.0000 </r>
       <r>    6.2027    1.0000 </r>
       <r>    7.4504    1.0000 </r>
       <r>    7.7867    1.0000 </r>
       <r>   19.6812    0.0000 </r>
       <r>   24.4178    0.0000 </r>
       <r>   24.5419    0.0000 </r>
       <r>   26.3440    0.0000 </r>
       <r>   30.1092    0.0000 </r>
       <r>   33.0999    0.0000 </r>
      </set>
      <set comment="kpoint 20">
       <r>    2.6353    1.0000 </r>
       <r>    4.5104    1.0000 </r>
       <r>    5.4926    1.0000 </r>
       <r>    6.2028    1.0000 </r>
       <r>    7.4504    1.0000 </r>
       <r>    7.7867    1.0000 </r>
       <r>   19.6811    0.0000 </r>
       <r>   24.4180    0.0000 </r>
       <r>   24.5418    0.0000 </r>
       <r>   26.3441    0.0000 </r>
       <r>   30.1090    0.0000 </r>
       <r>   33.1000    0.0000 </r>
      </set>
      <set comment="kpoint 21">
       <r>    2.6353    1.0000 </r>
       <r>    4.5104    1.0000 </r>
       <r>    5.4926    1.0000 </r>
       <r>    6.2027    1.0000 </r>
       <r>    7.4504    1.0000 </r>
       <r>    7.7867    1.0000 </r>
       <r>   19.6809    0.0000 </r>
       <r>   24.4180    0.0000 </r>
       <r>   24.5419    0.0000 </r>
       <r>   26.3441    0.0000 </r>
       <r>   30.1091    0.0000 </r>
       <r>   33.1000    0.0000 </r>
      </set>
      <set comment="kpoint 22">
       <r>    2.6353    1.0000 </r>
       <r>    4.5104    1.0000 </r>
       <r>    5.4926    1.0000 </r>
       <r>    6.2027    1.0000 </r>
       <r>    7.4504    1.0000 </r>
       <r>    7.7867    1.0000 </r>
       <r>   19.6812    0.0000 </r>
       <r>   24.4178    0.0000 </r>
       <r>   24.5419    0.0000 </r>
       <r>   26.3440    0.0000 </r>
       <r>   30.1092    0.0000 </r>
       <r>   33.0998    0.0000 </r>
      </set>
      <set comment="kpoint 23">
       <r>    2.6353    1.0000 </r>
       <r>    4.5104    1.0000 </r>
       <r>    5.4926    1.0000 </r>
       <r>    6.2028    1.0000 </r>
       <r>    7.4504    1.0000 </r>
       <r>    7.7867    1.0000 </r>
       <r>   19.6811    0.0000 </r>
       <r>   24.4180    0.0000 </r>
       <r>   24.5418    0.0000 </r>
       <r>   26.3441    0.0000 </r>
       <r>   30.1089    0.0000 </r>
       <r>   33.1000    0.0000 </r>
      </set>
      <set comment="kpoint 24">
       <r>    2.6353    1.0000 </r>
       <r>    4.5104    1.0000 </r>
       <r>    5.4926    1.0000 </r>
       <r>    6.2027    1.0000 </r>
       <r>    7.4504    1.0000 </r>
       <r>    7.7867    1.0000 </r>
       <r>   19.6809    0.0000 </r>
       <r>   24.4180    0.0000 </r>
       <r>   24.5419    0.0000 </r>
       <r>   26.3441    0.0000 </r>
       <r>   30.1091    0.0000 </r>
       <r>   33.1000    0.0000 </r>
      </set>
      <set comment="kpoint 25">
       <r>    2.6353    1.0000 </r>
       <r>    4.5104    1.0000 </r>
       <r>    5.4926    1.0000 </r>
       <r>    6.2027    1.0000 </r>
       <r>    7.4504    1.0000 </r>
       <r>    7.7867    1.0000 </r>
       <r>   19.6812    0.0000 </r>
       <r>   24.4178    0.0000 </r>
       <r>   24.5419    0.0000 </r>
       <r>   26.3440    0.0000 </r>
       <r>   30.1092    0.0000 </r>
       <r>   33.0998    0.0000 </r>
      </set>
      <set comment="kpoint 26">
       <r>    2.6353    1.0000 </r>
       <r>    4.5104    1.0000 </r>
       <r>    5.4926    1.0000 </r>
       <r>    6.2028    1.0000 </r>
       <r>    7.4504    1.0000 </r>
       <r>    7.7867    1.0000 </r>
       <r>   19.6811    0.0000 </r>
       <r>   24.4180    0.0000 </r>
       <r>   24.5418    0.0000 </r>
       <r>   26.3441    0.0000 </r>
       <r>   30.1090    0.0000 </r>
       <r>   33.1000    0.0000 </r>
      </set>
      <set comment="kpoint 27">
       <r>    2.6353    1.0000 </r>
       <r>    4.5104    1.0000 </r>
       <r>    5.4926    1.0000 </r>
       <r>    6.2027    1.0000 </r>
       <r>    7.4504    1.0000 </r>
       <r>    7.7867    1.0000 </r>
       <r>   19.6809    0.0000 </r>
       <r>   24.4180    0.0000 </r>
       <r>   24.5419    0.0000 </r>
       <r>   26.3441    0.0000 </r>
       <r>   30.1091    0.0000 </r>
       <r>   33.1000    0.0000 </r>
      </set>
      <set comment="kpoint 28">
       <r>    2.6353    1.0000 </r>
       <r>    4.5104    1.0000 </r>
       <r>    5.4926    1.0000 </r>
       <r>    6.2027    1.0000 </r>
       <r>    7.4504    1.0000 </r>
       <r>    7.7867    1.0000 </r>
       <r>   19.6812    0.0000 </r>
       <r>   24.4178    0.0000 </r>
       <r>   24.5419    0.0000 </r>
       <r>   26.3440    0.0000 </r>
       <r>   30.1092    0.0000 </r>
       <r>   33.0999    0.0000 </r>
      </set>
      <set comment="kpoint 29">
       <r>    3.2059    1.0000 </r>
       <r>    4.9440    1.0000 </r>
       <r>    5.8971    1.0000 </r>
       <r>    5.9327    1.0000 </r>
       <r>    8.2331    0.1815 </r>
       <r>   10.4128    0.0000 </r>
       <r>   13.6703    0.0000 </r>
       <r>   22.5577    0.0000 </r>
       <r>   24.1459    0.0000 </r>
       <r>   24.7174    0.0000 </r>
       <r>   33.5688    0.0000 </r>
       <r>   34.2789    0.0000 </r>
      </set>
      <set comment="kpoint 30">
       <r>    3.2059    1.0000 </r>
       <r>    4.9440    1.0000 </r>
       <r>    5.8971    1.0000 </r>
       <r>    5.9327    1.0000 </r>
       <r>    8.2331    0.1815 </r>
       <r>   10.4128    0.0000 </r>
       <r>   13.6703    0.0000 </r>
       <r>   22.5577    0.0000 </r>
       <r>   24.1458    0.0000 </r>
       <r>   24.7174    0.0000 </r>
       <r>   33.5688    0.0000 </r>
       <r>   34.2789    0.0000 </r>
      </set>
      <set comment="kpoint 31">
       <r>    3.2059    1.0000 </r>
       <r>    4.9440    1.0000 </r>
       <r>    5.8971    1.0000 </r>
       <r>    5.9327    1.0000 </r>
       <r>    8.2331    0.1815 </r>
       <r>   10.4128    0.0000 </r>
       <r>   13.6703    0.0000 </r>
       <r>   22.5577    0.0000 </r>
       <r>   24.1459    0.0000 </r>
       <r>   24.7174    0.0000 </r>
       <r>   33.5688    0.0000 </r>
       <r>   34.2789    0.0000 </r>
      </set>
      <set comment="kpoint 32">
       <r>    3.2058    1.0000 </r>
       <r>    4.9440    1.0000 </r>
       <r>    5.8971    1.0000 </r>
       <r>    5.9328    1.0000 </r>
       <r>    8.2331    0.1813 </r>
       <r>   10.4128    0.0000 </r>
       <r>   13.6703    0.0000 </r>
       <r>   22.5576    0.0000 </r>
       <r>   24.1460    0.0000 </r>
       <r>   24.7175    0.0000 </r>
       <r>   33.5689    0.0000 </r>
       <r>   34.2789    0.0000 </r>
      </set>
      <set comment="kpoint 33">
       <r>    3.2058    1.0000 </r>
       <r>    4.9440    1.0000 </r>
       <r>    5.8971    1.0000 </r>
       <r>    5.9328    1.0000 </r>
       <r>    8.2331    0.1816 </r>
       <r>   10.4128    0.0000 </r>
       <r>   13.6702    0.0000 </r>
       <r>   22.5577    0.0000 </r>
       <r>   24.1460    0.0000 </r>
       <r>   24.7176    0.0000 </r>
       <r>   33.5689    0.0000 </r>
       <r>   34.2790    0.0000 </r>
      </set>
      <set comment="kpoint 34">
       <r>    3.2059    1.0000 </r>
       <r>    4.9440    1.0000 </r>
       <r>    5.8971    1.0000 </r>
       <r>    5.9327    1.0000 </r>
       <r>    8.2331    0.1815 </r>
       <r>   10.4128    0.0000 </r>
       <r>   13.6703    0.0000 </r>
       <r>   22.5577    0.0000 </r>
       <r>   24.1459    0.0000 </r>
       <r>   24.7174    0.0000 </r>
       <r>   33.5688    0.0000 </r>
       <r>   34.2789    0.0000 </r>
      </set>
      <set comment="kpoint 35">
       <r>    3.2058    1.0000 </r>
       <r>    4.9440    1.0000 </r>
       <r>    5.8971    1.0000 </r>
       <r>    5.9328    1.0000 </r>
       <r>    8.2331    0.1813 </r>
       <r>   10.4128    0.0000 </r>
       <r>   13.6703    0.0000 </r>
       <r>   22.5576    0.0000 </r>
       <r>   24.1460    0.0000 </r>
       <r>   24.7175    0.0000 </r>
       <r>   33.5689    0.0000 </r>
       <r>   34.2789    0.0000 </r>
      </set>
      <set comment="kpoint 36">
       <r>    3.2058    1.0000 </r>
       <r>    4.9440    1.0000 </r>
       <r>    5.8971    1.0000 </r>
       <r>    5.9328    1.0000 </r>
       <r>    8.2331    0.1816 </r>
       <r>   10.4128    0.0000 </r>
       <r>   13.6702    0.0000 </r>
       <r>   22.5577    0.0000 </r>
       <r>   24.1461    0.0000 </r>
       <r>   24.7176    0.0000 </r>
       <r>   33.5689    0.0000 </r>
       <r>   34.2790    0.0000 </r>
      </set>
      <set comment="kpoint 37">
       <r>    3.2059    1.0000 </r>
       <r>    4.9440    1.0000 </r>
       <r>    5.8971    1.0000 </r>
       <r>    5.9327    1.0000 </r>
       <r>    8.2331    0.1815 </r>
       <r>   10.4128    0.0000 </r>
       <r>   13.6703    0.0000 </r>
       <r>   22.5577    0.0000 </r>
       <r>   24.1459    0.0000 </r>
       <r>   24.7174    0.0000 </r>
       <r>   33.5688    0.0000 </r>
       <r>   34.2789    0.0000 </r>
      </set>
      <set comment="kpoint 38">
       <r>    3.2058    1.0000 </r>
       <r>    4.9440    1.0000 </r>
       <r>    5.8971    1.0000 </r>
       <r>    5.9328    1.0000 </r>
       <r>    8.2331    0.1813 </r>
       <r>   10.4128    0.0000 </r>
       <r>   13.6703    0.0000 </r>
       <r>   22.5575    0.0000 </r>
       <r>   24.1459    0.0000 </r>
       <r>   24.7175    0.0000 </r>
       <r>   33.5689    0.0000 </r>
       <r>   34.2789    0.0000 </r>
      </set>
      <set comment="kpoint 39">
       <r>    3.2058    1.0000 </r>
       <r>    4.9440    1.0000 </r>
       <r>    5.8971    1.0000 </r>
       <r>    5.9328    1.0000 </r>
       <r>    8.2331    0.1816 </r>
       <r>   10.4128    0.0000 </r>
       <r>   13.6702    0.0000 </r>
       <r>   22.5577    0.0000 </r>
       <r>   24.1461    0.0000 </r>
       <r>   24.7176    0.0000 </r>
       <r>   33.5689    0.0000 </r>
       <r>   34.2790    0.0000 </r>
      </set>
      <set comment="kpoint 40">
       <r>    3.2059    1.0000 </r>
       <r>    4.9440    1.0000 </r>
       <r>    5.8971    1.0000 </r>
       <r>    5.9327    1.0000 </r>
       <r>    8.2331    0.1815 </r>
       <r>   10.4128    0.0000 </r>
       <r>   13.6703    0.0000 </r>
       <r>   22.5577    0.0000 </r>
       <r>   24.1459    0.0000 </r>
       <r>   24.7174    0.0000 </r>
       <r>   33.5688    0.0000 </r>
       <r>   34.2789    0.0000 </r>
      </set>
      <set comment="kpoint 41">
       <r>    3.2551    1.0000 </r>
       <r>    5.0854    1.0000 </r>
       <r>    5.6275    1.0000 </r>
       <r>    5.9128    1.0000 </r>
       <r>    7.4048    1.0000 </r>
       <r>    9.6081    0.0000 </r>
       <r>   15.7222    0.0000 </r>
       <r>   21.7089    0.0000 </r>
       <r>   24.5700    0.0000 </r>
       <r>   26.8396    0.0000 </r>
       <r>   31.1233    0.0000 </r>
       <r>   33.8417    0.0000 </r>
      </set>
      <set comment="kpoint 42">
       <r>    3.2551    1.0000 </r>
       <r>    5.0854    1.0000 </r>
       <r>    5.6275    1.0000 </r>
       <r>    5.9128    1.0000 </r>
       <r>    7.4048    1.0000 </r>
       <r>    9.6081    0.0000 </r>
       <r>   15.7222    0.0000 </r>
       <r>   21.7089    0.0000 </r>
       <r>   24.5700    0.0000 </r>
       <r>   26.8396    0.0000 </r>
       <r>   31.1233    0.0000 </r>
       <r>   33.8417    0.0000 </r>
      </set>
      <set comment="kpoint 43">
       <r>    3.2551    1.0000 </r>
       <r>    5.0854    1.0000 </r>
       <r>    5.6275    1.0000 </r>
       <r>    5.9128    1.0000 </r>
       <r>    7.4048    1.0000 </r>
       <r>    9.6081    0.0000 </r>
       <r>   15.7222    0.0000 </r>
       <r>   21.7089    0.0000 </r>
       <r>   24.5700    0.0000 </r>
       <r>   26.8396    0.0000 </r>
       <r>   31.1233    0.0000 </r>
       <r>   33.8417    0.0000 </r>
      </set>
      <set comment="kpoint 44">
       <r>    3.2551    1.0000 </r>
       <r>    5.0854    1.0000 </r>
       <r>    5.6275    1.0000 </r>
       <r>    5.9128    1.0000 </r>
       <r>    7.4048    1.0000 </r>
       <r>    9.6081    0.0000 </r>
       <r>   15.7223    0.0000 </r>
       <r>   21.7088    0.0000 </r>
       <r>   24.5701    0.0000 </r>
       <r>   26.8397    0.0000 </r>
       <r>   31.1233    0.0000 </r>
       <r>   33.8418    0.0000 </r>
      </set>
      <set comment="kpoint 45">
       <r>    3.2551    1.0000 </r>
       <r>    5.0854    1.0000 </r>
       <r>    5.6275    1.0000 </r>
       <r>    5.9128    1.0000 </r>
       <r>    7.4048    1.0000 </r>
       <r>    9.6081    0.0000 </r>
       <r>   15.7221    0.0000 </r>
       <r>   21.7090    0.0000 </r>
       <r>   24.5702    0.0000 </r>
       <r>   26.8397    0.0000 </r>
       <r>   31.1233    0.0000 </r>
       <r>   33.8419    0.0000 </r>
      </set>
      <set comment="kpoint 46">
       <r>    3.2551    1.0000 </r>
       <r>    5.0854    1.0000 </r>
       <r>    5.6275    1.0000 </r>
       <r>    5.9128    1.0000 </r>
       <r>    7.4048    1.0000 </r>
       <r>    9.6081    0.0000 </r>
       <r>   15.7222    0.0000 </r>
       <r>   21.7089    0.0000 </r>
       <r>   24.5700    0.0000 </r>
       <r>   26.8396    0.0000 </r>
       <r>   31.1233    0.0000 </r>
       <r>   33.8417    0.0000 </r>
      </set>
      <set comment="kpoint 47">
       <r>    3.2551    1.0000 </r>
       <r>    5.0854    1.0000 </r>
       <r>    5.6275    1.0000 </r>
       <r>    5.9128    1.0000 </r>
       <r>    7.4048    1.0000 </r>
       <r>    9.6081    0.0000 </r>
       <r>   15.7223    0.0000 </r>
       <r>   21.7088    0.0000 </r>
       <r>   24.5701    0.0000 </r>
       <r>   26.8397    0.0000 </r>
       <r>   31.1233    0.0000 </r>
       <r>   33.8418    0.0000 </r>
      </set>
      <set comment="kpoint 48">
       <r>    3.2551    1.0000 </r>
       <r>    5.0854    1.0000 </r>
       <r>    5.6275    1.0000 </r>
       <r>    5.9128    1.0000 </r>
       <r>    7.4048    1.0000 </r>
       <r>    9.6081    0.0000 </r>
       <r>   15.7221    0.0000 </r>
       <r>   21.7090    0.0000 </r>
       <r>   24.5702    0.0000 </r>
       <r>   26.8397    0.0000 </r>
       <r>   31.1233    0.0000 </r>
       <r>   33.8419    0.0000 </r>
      </set>
      <set comment="kpoint 49">
       <r>    3.2551    1.0000 </r>
       <r>    5.0854    1.0000 </r>
       <r>    5.6275    1.0000 </r>
       <r>    5.9128    1.0000 </r>
       <r>    7.4048    1.0000 </r>
       <r>    9.6081    0.0000 </r>
       <r>   15.7222    0.0000 </r>
       <r>   21.7089    0.0000 </r>
       <r>   24.5700    0.0000 </r>
       <r>   26.8396    0.0000 </r>
       <r>   31.1232    0.0000 </r>
       <r>   33.8417    0.0000 </r>
      </set>
      <set comment="kpoint 50">
       <r>    3.2551    1.0000 </r>
       <r>    5.0854    1.0000 </r>
       <r>    5.6275    1.0000 </r>
       <r>    5.9128    1.0000 </r>
       <r>    7.4048    1.0000 </r>
       <r>    9.6081    0.0000 </r>
       <r>   15.7223    0.0000 </r>
       <r>   21.7088    0.0000 </r>
       <r>   24.5701    0.0000 </r>
       <r>   26.8397    0.0000 </r>
       <r>   31.1233    0.0000 </r>
       <r>   33.8418    0.0000 </r>
      </set>
      <set comment="kpoint 51">
       <r>    3.2551    1.0000 </r>
       <r>    5.0854    1.0000 </r>
       <r>    5.6275    1.0000 </r>
       <r>    5.9128    1.0000 </r>
       <r>    7.4048    1.0000 </r>
       <r>    9.6081    0.0000 </r>
       <r>   15.7221    0.0000 </r>
       <r>   21.7090    0.0000 </r>
       <r>   24.5702    0.0000 </r>
       <r>   26.8397    0.0000 </r>
       <r>   31.1233    0.0000 </r>
       <r>   33.8419    0.0000 </r>
      </set>
      <set comment="kpoint 52">
       <r>    3.2551    1.0000 </r>
       <r>    5.0854    1.0000 </r>
       <r>    5.6275    1.0000 </r>
       <r>    5.9128    1.0000 </r>
       <r>    7.4048    1.0000 </r>
       <r>    9.6081    0.0000 </r>
       <r>   15.7222    0.0000 </r>
       <r>   21.7089    0.0000 </r>
       <r>   24.5700    0.0000 </r>
       <r>   26.8396    0.0000 </r>
       <r>   31.1233    0.0000 </r>
       <r>   33.8417    0.0000 </r>
      </set>
      <set comment="kpoint 53">
       <r>    2.0933    1.0000 </r>
       <r>    4.7618    1.0000 </r>
       <r>    5.6377    1.0000 </r>
       <r>    6.1408    1.0000 </r>
       <r>    6.3728    1.0000 </r>
       <r>    7.8565    1.0000 </r>
       <r>   21.1545    0.0000 </r>
       <r>   23.0289    0.0000 </r>
       <r>   26.8395    0.0000 </r>
       <r>   27.2914    0.0000 </r>
       <r>   31.0313    0.0000 </r>
       <r>   32.5458    0.0000 </r>
      </set>
      <set comment="kpoint 54">
       <r>    2.0933    1.0000 </r>
       <r>    4.7618    1.0000 </r>
       <r>    5.6377    1.0000 </r>
       <r>    6.1408    1.0000 </r>
       <r>    6.3728    1.0000 </r>
       <r>    7.8565    1.0000 </r>
       <r>   21.1545    0.0000 </r>
       <r>   23.0289    0.0000 </r>
       <r>   26.8395    0.0000 </r>
       <r>   27.2914    0.0000 </r>
       <r>   31.0313    0.0000 </r>
       <r>   32.5458    0.0000 </r>
      </set>
      <set comment="kpoint 55">
       <r>    2.0933    1.0000 </r>
       <r>    4.7618    1.0000 </r>
       <r>    5.6377    1.0000 </r>
       <r>    6.1408    1.0000 </r>
       <r>    6.3728    1.0000 </r>
       <r>    7.8565    1.0000 </r>
       <r>   21.1545    0.0000 </r>
       <r>   23.0289    0.0000 </r>
       <r>   26.8395    0.0000 </r>
       <r>   27.2914    0.0000 </r>
       <r>   31.0313    0.0000 </r>
       <r>   32.5458    0.0000 </r>
      </set>
      <set comment="kpoint 56">
       <r>    2.0933    1.0000 </r>
       <r>    4.7618    1.0000 </r>
       <r>    5.6376    1.0000 </r>
       <r>    6.1408    1.0000 </r>
       <r>    6.3728    1.0000 </r>
       <r>    7.8565    1.0000 </r>
       <r>   21.1544    0.0000 </r>
       <r>   23.0288    0.0000 </r>
       <r>   26.8396    0.0000 </r>
       <r>   27.2914    0.0000 </r>
       <r>   31.0314    0.0000 </r>
       <r>   32.5460    0.0000 </r>
      </set>
      <set comment="kpoint 57">
       <r>    2.0933    1.0000 </r>
       <r>    4.7618    1.0000 </r>
       <r>    5.6376    1.0000 </r>
       <r>    6.1408    1.0000 </r>
       <r>    6.3728    1.0000 </r>
       <r>    7.8565    1.0000 </r>
       <r>   21.1544    0.0000 </r>
       <r>   23.0288    0.0000 </r>
       <r>   26.8396    0.0000 </r>
       <r>   27.2914    0.0000 </r>
       <r>   31.0314    0.0000 </r>
       <r>   32.5460    0.0000 </r>
      </set>
      <set comment="kpoint 58">
       <r>    2.0933    1.0000 </r>
       <r>    4.7618    1.0000 </r>
       <r>    5.6376    1.0000 </r>
       <r>    6.1408    1.0000 </r>
       <r>    6.3728    1.0000 </r>
       <r>    7.8565    1.0000 </r>
       <r>   21.1544    0.0000 </r>
       <r>   23.0287    0.0000 </r>
       <r>   26.8396    0.0000 </r>
       <r>   27.2915    0.0000 </r>
       <r>   31.0314    0.0000 </r>
       <r>   32.5460    0.0000 </r>
      </set>
      <set comment="kpoint 59">
       <r>    3.0199    1.0000 </r>
       <r>    3.7154    1.0000 </r>
       <r>    6.7471    1.0000 </r>
       <r>    7.4428    1.0000 </r>
       <r>    7.4428    1.0000 </r>
       <r>    7.8391    1.0000 </r>
       <r>   21.3223    0.0000 </r>
       <r>   21.4413    0.0000 </r>
       <r>   21.4415    0.0000 </r>
       <r>   25.4361    0.0000 </r>
       <r>   27.4958    0.0000 </r>
       <r>   36.2443    0.0000 </r>
      </set>
      <set comment="kpoint 60">
       <r>    3.0199    1.0000 </r>
       <r>    3.7154    1.0000 </r>
       <r>    6.7471    1.0000 </r>
       <r>    7.4428    1.0000 </r>
       <r>    7.4428    1.0000 </r>
       <r>    7.8391    1.0000 </r>
       <r>   21.3223    0.0000 </r>
       <r>   21.4413    0.0000 </r>
       <r>   21.4415    0.0000 </r>
       <r>   25.4361    0.0000 </r>
       <r>   27.4958    0.0000 </r>
       <r>   36.2443    0.0000 </r>
      </set>
      <set comment="kpoint 61">
       <r>    3.0199    1.0000 </r>
       <r>    3.7154    1.0000 </r>
       <r>    6.7471    1.0000 </r>
       <r>    7.4428    1.0000 </r>
       <r>    7.4428    1.0000 </r>
       <r>    7.8391    1.0000 </r>
       <r>   21.3223    0.0000 </r>
       <r>   21.4413    0.0000 </r>
       <r>   21.4415    0.0000 </r>
       <r>   25.4361    0.0000 </r>
       <r>   27.4958    0.0000 </r>
       <r>   36.2443    0.0000 </r>
      </set>
      <set comment="kpoint 62">
       <r>    3.3250    1.0000 </r>
       <r>    3.7791    1.0000 </r>
       <r>    6.5082    1.0000 </r>
       <r>    7.3462    1.0000 </r>
       <r>    8.3377    0.0001 </r>
       <r>   10.8487    0.0000 </r>
       <r>   15.8055    0.0000 </r>
       <r>   19.0467    0.0000 </r>
       <r>   20.7743    0.0000 </r>
       <r>   26.6269    0.0000 </r>
       <r>   30.0840    0.0000 </r>
       <r>   34.8797    0.0000 </r>
      </set>
      <set comment="kpoint 63">
       <r>    3.3250    1.0000 </r>
       <r>    3.7791    1.0000 </r>
       <r>    6.5082    1.0000 </r>
       <r>    7.3462    1.0000 </r>
       <r>    8.3377    0.0001 </r>
       <r>   10.8487    0.0000 </r>
       <r>   15.8055    0.0000 </r>
       <r>   19.0467    0.0000 </r>
       <r>   20.7743    0.0000 </r>
       <r>   26.6269    0.0000 </r>
       <r>   30.0840    0.0000 </r>
       <r>   34.8797    0.0000 </r>
      </set>
      <set comment="kpoint 64">
       <r>    3.3250    1.0000 </r>
       <r>    3.7791    1.0000 </r>
       <r>    6.5082    1.0000 </r>
       <r>    7.3462    1.0000 </r>
       <r>    8.3377    0.0001 </r>
       <r>   10.8487    0.0000 </r>
       <r>   15.8055    0.0000 </r>
       <r>   19.0467    0.0000 </r>
       <r>   20.7743    0.0000 </r>
       <r>   26.6269    0.0000 </r>
       <r>   30.0839    0.0000 </r>
       <r>   34.8797    0.0000 </r>
      </set>
      <set comment="kpoint 65">
       <r>    3.3250    1.0000 </r>
       <r>    3.7791    1.0000 </r>
       <r>    6.5082    1.0000 </r>
       <r>    7.3462    1.0000 </r>
       <r>    8.3377    0.0001 </r>
       <r>   10.8487    0.0000 </r>
       <r>   15.8054    0.0000 </r>
       <r>   19.0466    0.0000 </r>
       <r>   20.7745    0.0000 </r>
       <r>   26.6270    0.0000 </r>
       <r>   30.0837    0.0000 </r>
       <r>   34.8797    0.0000 </r>
      </set>
      <set comment="kpoint 66">
       <r>    3.3250    1.0000 </r>
       <r>    3.7791    1.0000 </r>
       <r>    6.5082    1.0000 </r>
       <r>    7.3462    1.0000 </r>
       <r>    8.3377    0.0001 </r>
       <r>   10.8487    0.0000 </r>
       <r>   15.8054    0.0000 </r>
       <r>   19.0467    0.0000 </r>
       <r>   20.7745    0.0000 </r>
       <r>   26.6270    0.0000 </r>
       <r>   30.0838    0.0000 </r>
       <r>   34.8798    0.0000 </r>
      </set>
      <set comment="kpoint 67">
       <r>    3.3250    1.0000 </r>
       <r>    3.7791    1.0000 </r>
       <r>    6.5082    1.0000 </r>
       <r>    7.3462    1.0000 </r>
       <r>    8.3377    0.0001 </r>
       <r>   10.8487    0.0000 </r>
       <r>   15.8055    0.0000 </r>
       <r>   19.0467    0.0000 </r>
       <r>   20.7743    0.0000 </r>
       <r>   26.6269    0.0000 </r>
       <r>   30.0840    0.0000 </r>
       <r>   34.8797    0.0000 </r>
      </set>
      <set comment="kpoint 68">
       <r>    3.3250    1.0000 </r>
       <r>    3.7791    1.0000 </r>
       <r>    6.5082    1.0000 </r>
       <r>    7.3462    1.0000 </r>
       <r>    8.3377    0.0001 </r>
       <r>   10.8487    0.0000 </r>
       <r>   15.8054    0.0000 </r>
       <r>   19.0466    0.0000 </r>
       <r>   20.7745    0.0000 </r>
       <r>   26.6270    0.0000 </r>
       <r>   30.0837    0.0000 </r>
       <r>   34.8797    0.0000 </r>
      </set>
      <set comment="kpoint 69">
       <r>    3.3250    1.0000 </r>
       <r>    3.7791    1.0000 </r>
       <r>    6.5082    1.0000 </r>
       <r>    7.3462    1.0000 </r>
       <r>    8.3377    0.0001 </r>
       <r>   10.8487    0.0000 </r>
       <r>   15.8054    0.0000 </r>
       <r>   19.0467    0.0000 </r>
       <r>   20.7745    0.0000 </r>
       <r>   26.6270    0.0000 </r>
       <r>   30.0838    0.0000 </r>
       <r>   34.8798    0.0000 </r>
      </set>
      <set comment="kpoint 70">
       <r>    3.3250    1.0000 </r>
       <r>    3.7791    1.0000 </r>
       <r>    6.5082    1.0000 </r>
       <r>    7.3462    1.0000 </r>
       <r>    8.3377    0.0001 </r>
       <r>   10.8487    0.0000 </r>
       <r>   15.8055    0.0000 </r>
       <r>   19.0467    0.0000 </r>
       <r>   20.7743    0.0000 </r>
       <r>   26.6269    0.0000 </r>
       <r>   30.0840    0.0000 </r>
       <r>   34.8797    0.0000 </r>
      </set>
      <set comment="kpoint 71">
       <r>    3.3250    1.0000 </r>
       <r>    3.7791    1.0000 </r>
       <r>    6.5082    1.0000 </r>
       <r>    7.3462    1.0000 </r>
       <r>    8.3377    0.0001 </r>
       <r>   10.8487    0.0000 </r>
       <r>   15.8054    0.0000 </r>
       <r>   19.0466    0.0000 </r>
       <r>   20.7745    0.0000 </r>
       <r>   26.6270    0.0000 </r>
       <r>   30.0837    0.0000 </r>
       <r>   34.8797    0.0000 </r>
      </set>
      <set comment="kpoint 72">
       <r>    3.3250    1.0000 </r>
       <r>    3.7791    1.0000 </r>
       <r>    6.5082    1.0000 </r>
       <r>    7.3462    1.0000 </r>
       <r>    8.3377    0.0001 </r>
       <r>   10.8487    0.0000 </r>
       <r>   15.8054    0.0000 </r>
       <r>   19.0467    0.0000 </r>
       <r>   20.7745    0.0000 </r>
       <r>   26.6270    0.0000 </r>
       <r>   30.0837    0.0000 </r>
       <r>   34.8798    0.0000 </r>
      </set>
      <set comment="kpoint 73">
       <r>    3.3250    1.0000 </r>
       <r>    3.7791    1.0000 </r>
       <r>    6.5082    1.0000 </r>
       <r>    7.3462    1.0000 </r>
       <r>    8.3377    0.0001 </r>
       <r>   10.8487    0.0000 </r>
       <r>   15.8055    0.0000 </r>
       <r>   19.0467    0.0000 </r>
       <r>   20.7743    0.0000 </r>
       <r>   26.6269    0.0000 </r>
       <r>   30.0839    0.0000 </r>
       <r>   34.8797    0.0000 </r>
      </set>
      <set comment="kpoint 74">
       <r>    3.8275    1.0000 </r>
       <r>    4.6045    1.0000 </r>
       <r>    5.4857    1.0000 </r>
       <r>    6.8241    1.0000 </r>
       <r>    7.7145    1.0000 </r>
       <r>   11.9918    0.0000 </r>
       <r>   15.8803    0.0000 </r>
       <r>   16.5875    0.0000 </r>
       <r>   23.2835    0.0000 </r>
       <r>   25.8293    0.0000 </r>
       <r>   33.4990    0.0000 </r>
       <r>   34.0107    0.0000 </r>
      </set>
      <set comment="kpoint 75">
       <r>    3.8275    1.0000 </r>
       <r>    4.6045    1.0000 </r>
       <r>    5.4857    1.0000 </r>
       <r>    6.8241    1.0000 </r>
       <r>    7.7145    1.0000 </r>
       <r>   11.9918    0.0000 </r>
       <r>   15.8803    0.0000 </r>
       <r>   16.5875    0.0000 </r>
       <r>   23.2835    0.0000 </r>
       <r>   25.8293    0.0000 </r>
       <r>   33.4990    0.0000 </r>
       <r>   34.0107    0.0000 </r>
      </set>
      <set comment="kpoint 76">
       <r>    3.8275    1.0000 </r>
       <r>    4.6045    1.0000 </r>
       <r>    5.4857    1.0000 </r>
       <r>    6.8241    1.0000 </r>
       <r>    7.7145    1.0000 </r>
       <r>   11.9918    0.0000 </r>
       <r>   15.8803    0.0000 </r>
       <r>   16.5875    0.0000 </r>
       <r>   23.2835    0.0000 </r>
       <r>   25.8293    0.0000 </r>
       <r>   33.4990    0.0000 </r>
       <r>   34.0107    0.0000 </r>
      </set>
      <set comment="kpoint 77">
       <r>    3.8274    1.0000 </r>
       <r>    4.6045    1.0000 </r>
       <r>    5.4857    1.0000 </r>
       <r>    6.8242    1.0000 </r>
       <r>    7.7145    1.0000 </r>
       <r>   11.9917    0.0000 </r>
       <r>   15.8802    0.0000 </r>
       <r>   16.5875    0.0000 </r>
       <r>   23.2836    0.0000 </r>
       <r>   25.8294    0.0000 </r>
       <r>   33.4990    0.0000 </r>
       <r>   34.0108    0.0000 </r>
      </set>
      <set comment="kpoint 78">
       <r>    3.8274    1.0000 </r>
       <r>    4.6045    1.0000 </r>
       <r>    5.4857    1.0000 </r>
       <r>    6.8242    1.0000 </r>
       <r>    7.7145    1.0000 </r>
       <r>   11.9917    0.0000 </r>
       <r>   15.8802    0.0000 </r>
       <r>   16.5875    0.0000 </r>
       <r>   23.2836    0.0000 </r>
       <r>   25.8294    0.0000 </r>
       <r>   33.4990    0.0000 </r>
       <r>   34.0108    0.0000 </r>
      </set>
      <set comment="kpoint 79">
       <r>    3.8274    1.0000 </r>
       <r>    4.6045    1.0000 </r>
       <r>    5.4857    1.0000 </r>
       <r>    6.8242    1.0000 </r>
       <r>    7.7145    1.0000 </r>
       <r>   11.9917    0.0000 </r>
       <r>   15.8802    0.0000 </r>
       <r>   16.5875    0.0000 </r>
       <r>   23.2836    0.0000 </r>
       <r>   25.8294    0.0000 </r>
       <r>   33.4990    0.0000 </r>
       <r>   34.0108    0.0000 </r>
      </set>
      <set comment="kpoint 80">
       <r>    2.9064    1.0000 </r>
       <r>    3.2580    1.0000 </r>
       <r>    8.1602    0.8753 </r>
       <r>    8.5123    0.0000 </r>
       <r>    8.5123    0.0000 </r>
       <r>   10.3604    0.0000 </r>
       <r>   15.3204    0.0000 </r>
       <r>   19.0154    0.0000 </r>
       <r>   19.0156    0.0000 </r>
       <r>   26.1997    0.0000 </r>
       <r>   28.7953    0.0000 </r>
       <r>   35.5709    0.0000 </r>
      </set>
      <set comment="kpoint 81">
       <r>    2.9064    1.0000 </r>
       <r>    3.2580    1.0000 </r>
       <r>    8.1602    0.8753 </r>
       <r>    8.5123    0.0000 </r>
       <r>    8.5123    0.0000 </r>
       <r>   10.3604    0.0000 </r>
       <r>   15.3204    0.0000 </r>
       <r>   19.0154    0.0000 </r>
       <r>   19.0156    0.0000 </r>
       <r>   26.1997    0.0000 </r>
       <r>   28.7953    0.0000 </r>
       <r>   35.5709    0.0000 </r>
      </set>
      <set comment="kpoint 82">
       <r>    2.9064    1.0000 </r>
       <r>    3.2580    1.0000 </r>
       <r>    8.1602    0.8753 </r>
       <r>    8.5123    0.0000 </r>
       <r>    8.5123    0.0000 </r>
       <r>   10.3604    0.0000 </r>
       <r>   15.3204    0.0000 </r>
       <r>   19.0154    0.0000 </r>
       <r>   19.0156    0.0000 </r>
       <r>   26.1997    0.0000 </r>
       <r>   28.7953    0.0000 </r>
       <r>   35.5709    0.0000 </r>
      </set>
      <set comment="kpoint 83">
       <r>    3.8803    1.0000 </r>
       <r>    4.2577    1.0000 </r>
       <r>    4.9950    1.0000 </r>
       <r>    7.0685    1.0000 </r>
       <r>    7.4354    1.0000 </r>
       <r>    9.8069    0.0000 </r>
       <r>   17.7527    0.0000 </r>
       <r>   19.5192    0.0000 </r>
       <r>   22.5472    0.0000 </r>
       <r>   28.8077    0.0000 </r>
       <r>   29.1537    0.0000 </r>
       <r>   34.0338    0.0000 </r>
      </set>
      <set comment="kpoint 84">
       <r>    3.8803    1.0000 </r>
       <r>    4.2577    1.0000 </r>
       <r>    4.9950    1.0000 </r>
       <r>    7.0685    1.0000 </r>
       <r>    7.4354    1.0000 </r>
       <r>    9.8069    0.0000 </r>
       <r>   17.7527    0.0000 </r>
       <r>   19.5192    0.0000 </r>
       <r>   22.5472    0.0000 </r>
       <r>   28.8077    0.0000 </r>
       <r>   29.1537    0.0000 </r>
       <r>   34.0338    0.0000 </r>
      </set>
      <set comment="kpoint 85">
       <r>    3.8803    1.0000 </r>
       <r>    4.2577    1.0000 </r>
       <r>    4.9950    1.0000 </r>
       <r>    7.0685    1.0000 </r>
       <r>    7.4354    1.0000 </r>
       <r>    9.8069    0.0000 </r>
       <r>   17.7527    0.0000 </r>
       <r>   19.5192    0.0000 </r>
       <r>   22.5472    0.0000 </r>
       <r>   28.8077    0.0000 </r>
       <r>   29.1537    0.0000 </r>
       <r>   34.0338    0.0000 </r>
      </set>
      <set comment="kpoint 86">
       <r>    3.8803    1.0000 </r>
       <r>    4.2577    1.0000 </r>
       <r>    4.9950    1.0000 </r>
       <r>    7.0685    1.0000 </r>
       <r>    7.4354    1.0000 </r>
       <r>    9.8070    0.0000 </r>
       <r>   17.7527    0.0000 </r>
       <r>   19.5193    0.0000 </r>
       <r>   22.5472    0.0000 </r>
       <r>   28.8076    0.0000 </r>
       <r>   29.1537    0.0000 </r>
       <r>   34.0337    0.0000 </r>
      </set>
      <set comment="kpoint 87">
       <r>    3.8803    1.0000 </r>
       <r>    4.2577    1.0000 </r>
       <r>    4.9950    1.0000 </r>
       <r>    7.0685    1.0000 </r>
       <r>    7.4354    1.0000 </r>
       <r>    9.8069    0.0000 </r>
       <r>   17.7527    0.0000 </r>
       <r>   19.5192    0.0000 </r>
       <r>   22.5472    0.0000 </r>
       <r>   28.8077    0.0000 </r>
       <r>   29.1537    0.0000 </r>
       <r>   34.0338    0.0000 </r>
      </set>
      <set comment="kpoint 88">
       <r>    3.8803    1.0000 </r>
       <r>    4.2577    1.0000 </r>
       <r>    4.9950    1.0000 </r>
       <r>    7.0685    1.0000 </r>
       <r>    7.4354    1.0000 </r>
       <r>    9.8070    0.0000 </r>
       <r>   17.7527    0.0000 </r>
       <r>   19.5193    0.0000 </r>
       <r>   22.5472    0.0000 </r>
       <r>   28.8076    0.0000 </r>
       <r>   29.1537    0.0000 </r>
       <r>   34.0337    0.0000 </r>
      </set>
      <set comment="kpoint 89">
       <r>    3.8803    1.0000 </r>
       <r>    4.2577    1.0000 </r>
       <r>    4.9950    1.0000 </r>
       <r>    7.0685    1.0000 </r>
       <r>    7.4354    1.0000 </r>
       <r>    9.8070    0.0000 </r>
       <r>   17.7527    0.0000 </r>
       <r>   19.5193    0.0000 </r>
       <r>   22.5472    0.0000 </r>
       <r>   28.8075    0.0000 </r>
       <r>   29.1537    0.0000 </r>
       <r>   34.0337    0.0000 </r>
      </set>
      <set comment="kpoint 90">
       <r>    3.8803    1.0000 </r>
       <r>    4.2577    1.0000 </r>
       <r>    4.9950    1.0000 </r>
       <r>    7.0685    1.0000 </r>
       <r>    7.4354    1.0000 </r>
       <r>    9.8070    0.0000 </r>
       <r>   17.7527    0.0000 </r>
       <r>   19.5193    0.0000 </r>
       <r>   22.5472    0.0000 </r>
       <r>   28.8076    0.0000 </r>
       <r>   29.1537    0.0000 </r>
       <r>   34.0337    0.0000 </r>
      </set>
      <set comment="kpoint 91">
       <r>    3.8803    1.0000 </r>
       <r>    4.2577    1.0000 </r>
       <r>    4.9950    1.0000 </r>
       <r>    7.0685    1.0000 </r>
       <r>    7.4354    1.0000 </r>
       <r>    9.8069    0.0000 </r>
       <r>   17.7527    0.0000 </r>
       <r>   19.5192    0.0000 </r>
       <r>   22.5472    0.0000 </r>
       <r>   28.8077    0.0000 </r>
       <r>   29.1537    0.0000 </r>
       <r>   34.0338    0.0000 </r>
      </set>
      <set comment="kpoint 92">
       <r>    3.8803    1.0000 </r>
       <r>    4.2577    1.0000 </r>
       <r>    4.9950    1.0000 </r>
       <r>    7.0685    1.0000 </r>
       <r>    7.4354    1.0000 </r>
       <r>    9.8070    0.0000 </r>
       <r>   17.7527    0.0000 </r>
       <r>   19.5193    0.0000 </r>
       <r>   22.5472    0.0000 </r>
       <r>   28.8075    0.0000 </r>
       <r>   29.1537    0.0000 </r>
       <r>   34.0337    0.0000 </r>
      </set>
      <set comment="kpoint 93">
       <r>    3.8803    1.0000 </r>
       <r>    4.2577    1.0000 </r>
       <r>    4.9950    1.0000 </r>
       <r>    7.0685    1.0000 </r>
       <r>    7.4354    1.0000 </r>
       <r>    9.8070    0.0000 </r>
       <r>   17.7527    0.0000 </r>
       <r>   19.5193    0.0000 </r>
       <r>   22.5472    0.0000 </r>
       <r>   28.8076    0.0000 </r>
       <r>   29.1537    0.0000 </r>
       <r>   34.0337    0.0000 </r>
      </set>
      <set comment="kpoint 94">
       <r>    3.8803    1.0000 </r>
       <r>    4.2577    1.0000 </r>
       <r>    4.9950    1.0000 </r>
       <r>    7.0685    1.0000 </r>
       <r>    7.4354    1.0000 </r>
       <r>    9.8069    0.0000 </r>
       <r>   17.7527    0.0000 </r>
       <r>   19.5192    0.0000 </r>
       <r>   22.5472    0.0000 </r>
       <r>   28.8077    0.0000 </r>
       <r>   29.1537    0.0000 </r>
       <r>   34.0338    0.0000 </r>
      </set>
      <set comment="kpoint 95">
       <r>    4.1874    1.0000 </r>
       <r>    4.3419    1.0000 </r>
       <r>    5.2127    1.0000 </r>
       <r>    6.6662    1.0000 </r>
       <r>    8.0763    0.9998 </r>
       <r>   12.8927    0.0000 </r>
       <r>   13.6440    0.0000 </r>
       <r>   19.0258    0.0000 </r>
       <r>   20.8704    0.0000 </r>
       <r>   27.9010    0.0000 </r>
       <r>   31.7501    0.0000 </r>
       <r>   36.1854    0.0000 </r>
      </set>
      <set comment="kpoint 96">
       <r>    4.1874    1.0000 </r>
       <r>    4.3419    1.0000 </r>
       <r>    5.2127    1.0000 </r>
       <r>    6.6662    1.0000 </r>
       <r>    8.0763    0.9998 </r>
       <r>   12.8927    0.0000 </r>
       <r>   13.6440    0.0000 </r>
       <r>   19.0258    0.0000 </r>
       <r>   20.8704    0.0000 </r>
       <r>   27.9009    0.0000 </r>
       <r>   31.7501    0.0000 </r>
       <r>   36.1855    0.0000 </r>
      </set>
      <set comment="kpoint 97">
       <r>    4.1874    1.0000 </r>
       <r>    4.3419    1.0000 </r>
       <r>    5.2127    1.0000 </r>
       <r>    6.6662    1.0000 </r>
       <r>    8.0764    0.9998 </r>
       <r>   12.8927    0.0000 </r>
       <r>   13.6440    0.0000 </r>
       <r>   19.0258    0.0000 </r>
       <r>   20.8704    0.0000 </r>
       <r>   27.9010    0.0000 </r>
       <r>   31.7501    0.0000 </r>
       <r>   36.1845    0.0000 </r>
      </set>
      <set comment="kpoint 98">
       <r>    4.1875    1.0000 </r>
       <r>    4.3419    1.0000 </r>
       <r>    5.2127    1.0000 </r>
       <r>    6.6662    1.0000 </r>
       <r>    8.0763    0.9998 </r>
       <r>   12.8926    0.0000 </r>
       <r>   13.6440    0.0000 </r>
       <r>   19.0259    0.0000 </r>
       <r>   20.8705    0.0000 </r>
       <r>   27.9011    0.0000 </r>
       <r>   31.7500    0.0000 </r>
       <r>   36.1852    0.0000 </r>
      </set>
      <set comment="kpoint 99">
       <r>    4.1875    1.0000 </r>
       <r>    4.3420    1.0000 </r>
       <r>    5.2127    1.0000 </r>
       <r>    6.6661    1.0000 </r>
       <r>    8.0763    0.9998 </r>
       <r>   12.8927    0.0000 </r>
       <r>   13.6441    0.0000 </r>
       <r>   19.0258    0.0000 </r>
       <r>   20.8704    0.0000 </r>
       <r>   27.9009    0.0000 </r>
       <r>   31.7500    0.0000 </r>
       <r>   36.1836    0.0000 </r>
      </set>
      <set comment="kpoint 100">
       <r>    4.1874    1.0000 </r>
       <r>    4.3419    1.0000 </r>
       <r>    5.2127    1.0000 </r>
       <r>    6.6662    1.0000 </r>
       <r>    8.0763    0.9998 </r>
       <r>   12.8927    0.0000 </r>
       <r>   13.6440    0.0000 </r>
       <r>   19.0258    0.0000 </r>
       <r>   20.8704    0.0000 </r>
       <r>   27.9010    0.0000 </r>
       <r>   31.7501    0.0000 </r>
       <r>   36.1871    0.0000 </r>
      </set>
      <set comment="kpoint 101">
       <r>    4.1875    1.0000 </r>
       <r>    4.3420    1.0000 </r>
       <r>    5.2127    1.0000 </r>
       <r>    6.6662    1.0000 </r>
       <r>    8.0763    0.9998 </r>
       <r>   12.8926    0.0000 </r>
       <r>   13.6440    0.0000 </r>
[...]
       </set>
       <set comment="band 5">
        <r>  0.0082  0.0010  0.0004  0.0001  0.0670  0.0020  0.0829  0.2561  0.5549 </r>
       </set>
       <set comment="band 6">
        <r>  0.5326  0.0339  0.0127  0.0042  0.0461  0.0088  0.0417  0.1514  0.0018 </r>
       </set>
       <set comment="band 7">
        <r>  0.0000  0.0316  0.2762  0.1662  0.0327  0.0707  0.1683  0.0047  0.0251 </r>
       </set>
       <set comment="band 8">
        <r>  0.1133  0.3218  0.1207  0.0402  0.0000  0.1212  0.0622  0.0118  0.0002 </r>
       </set>
       <set comment="band 9">
        <r>  0.0000  0.0692  0.0173  0.2660  0.1642  0.0206  0.0064  0.0603  0.0719 </r>
       </set>
       <set comment="band 10">
        <r>  0.0000  0.0636  0.0542  0.0960  0.0093  0.0042  0.0271  0.0213  0.0401 </r>
       </set>
       <set comment="band 11">
        <r>  0.0002  0.0113  0.0042  0.0014  0.1643  0.0031  0.0785  0.0884  0.0516 </r>
       </set>
       <set comment="band 12">
        <r>  0.0031  0.0501  0.0753  0.0334  0.0016  0.0194  0.1094  0.0511  0.0802 </r>
       </set>
      </set>
      <set comment="kpoint 102">
       <set comment="band 1">
        <r>  0.0763  0.0398  0.0000  0.0199  0.0001  0.2186  0.0694  0.4372  0.0000 </r>
       </set>
       <set comment="band 2">
        <r>  0.0000  0.0126  0.0010  0.0252  0.0077  0.4951  0.0000  0.2475  0.0615 </r>
       </set>
       <set comment="band 3">
        <r>  0.0000  0.0062  0.0907  0.0124  0.0806  0.0218  0.0000  0.0109  0.6447 </r>
       </set>
       <set comment="band 4">
        <r>  0.0075  0.0111  0.0000  0.0055  0.7830  0.0007  0.0261  0.0014  0.0979 </r>
       </set>
       <set comment="band 5">
        <r>  0.0082  0.0010  0.0000  0.0005  0.0282  0.0408  0.8088  0.0815  0.0035 </r>
       </set>
       <set comment="band 6">
        <r>  0.5326  0.0339  0.0000  0.0170  0.0007  0.0542  0.0864  0.1084  0.0001 </r>
       </set>
       <set comment="band 7">
        <r>  0.0000  0.0316  0.3792  0.0632  0.0195  0.0838  0.0000  0.0419  0.1562 </r>
       </set>
       <set comment="band 8">
        <r>  0.1133  0.3218  0.0000  0.1609  0.0906  0.0305  0.0017  0.0611  0.0113 </r>
       </set>
       <set comment="band 9">
        <r>  0.0000  0.0692  0.1450  0.1383  0.0062  0.1786  0.0000  0.0893  0.0492 </r>
       </set>
       <set comment="band 10">
        <r>  0.0000  0.0636  0.0230  0.1272  0.0109  0.0026  0.0000  0.0013  0.0873 </r>
       </set>
       <set comment="band 11">
        <r>  0.0002  0.0113  0.0000  0.0057  0.0629  0.1045  0.0016  0.2090  0.0079 </r>
       </set>
       <set comment="band 12">
        <r>  0.0110  0.0462  0.0004  0.1095  0.0122  0.0019  0.0041  0.0002  0.2442 </r>
       </set>
      </set>
      <set comment="kpoint 103">
       <set comment="band 1">
        <r>  0.0763  0.0000  0.0149  0.0447  0.0007  0.0020  0.2815  0.0733  0.3678 </r>
       </set>
       <set comment="band 2">
        <r>  0.0000  0.0192  0.0147  0.0049  0.2283  0.0761  0.2855  0.1269  0.0951 </r>
       </set>
       <set comment="band 3">
        <r>  0.0000  0.1055  0.0029  0.0010  0.3066  0.1022  0.1964  0.0873  0.0655 </r>
       </set>
       <set comment="band 4">
        <r>  0.0075  0.0000  0.0041  0.0124  0.0869  0.2607  0.0382  0.3823  0.1410 </r>
       </set>
       <set comment="band 5">
        <r>  0.0082  0.0000  0.0004  0.0011  0.1470  0.4411  0.0197  0.2462  0.1089 </r>
       </set>
       <set comment="band 6">
        <r>  0.5326  0.0000  0.0127  0.0382  0.0035  0.0106  0.0839  0.0124  0.1394 </r>
       </set>
       <set comment="band 7">
        <r>  0.0000  0.4631  0.0081  0.0027  0.2120  0.0707  0.0107  0.0047  0.0035 </r>
       </set>
       <set comment="band 8">
        <r>  0.1133  0.0000  0.1207  0.3620  0.0118  0.0355  0.0147  0.0137  0.1194 </r>
       </set>
       <set comment="band 9">
        <r>  0.0000  0.0023  0.2626  0.0876  0.0617  0.0206  0.1356  0.0603  0.0452 </r>
       </set>
       <set comment="band 10">
        <r>  0.0000  0.0164  0.1480  0.0493  0.0126  0.0042  0.0480  0.0213  0.0160 </r>
       </set>
       <set comment="band 11">
        <r>  0.0002  0.0000  0.0042  0.0127  0.0002  0.0006  0.1645  0.1685  0.0522 </r>
       </set>
       <set comment="band 12">
        <r>  0.0012  0.0447  0.0828  0.0300  0.0855  0.0195  0.0804  0.0457  0.0304 </r>
       </set>
      </set>
      <set comment="kpoint 104">
       <set comment="band 1">
        <r>  0.0763  0.0000  0.0149  0.0447  0.0597  0.1792  0.2127  0.1525  0.1210 </r>
       </set>
       <set comment="band 2">
        <r>  0.0000  0.0074  0.0236  0.0079  0.5490  0.1830  0.0449  0.0200  0.0150 </r>
       </set>
       <set comment="band 3">
        <r>  0.0000  0.0279  0.0611  0.0204  0.0888  0.0296  0.3598  0.1599  0.1199 </r>
       </set>
       <set comment="band 4">
        <r>  0.0075  0.0000  0.0041  0.0124  0.0782  0.2345  0.0632  0.4298  0.1034 </r>
       </set>
       <set comment="band 5">
        <r>  0.0082  0.0000  0.0004  0.0011  0.0712  0.2137  0.0829  0.0444  0.5506 </r>
       </set>
       <set comment="band 6">
        <r>  0.5326  0.0000  0.0127  0.0382  0.0375  0.1126  0.0417  0.0475  0.0104 </r>
       </set>
       <set comment="band 7">
        <r>  0.0000  0.1057  0.2762  0.0921  0.0017  0.0006  0.1683  0.0748  0.0561 </r>
       </set>
       <set comment="band 8">
        <r>  0.1133  0.0000  0.1207  0.3620  0.0001  0.0002  0.0622  0.1327  0.0001 </r>
       </set>
       <set comment="band 9">
        <r>  0.0000  0.3294  0.0173  0.0058  0.2340  0.0780  0.0064  0.0028  0.0021 </r>
       </set>
       <set comment="band 10">
        <r>  0.0000  0.1414  0.0542  0.0181  0.0404  0.0135  0.0271  0.0121  0.0090 </r>
       </set>
       <set comment="band 11">
        <r>  0.0002  0.0000  0.0042  0.0127  0.0298  0.0893  0.0785  0.0022  0.1861 </r>
       </set>
       <set comment="band 12">
        <r>  0.0109  0.0598  0.0769  0.0199  0.0331  0.0428  0.1100  0.0356  0.0414 </r>
       </set>
      </set>
      <set comment="kpoint 105">
       <set comment="band 1">
        <r>  0.0763  0.0398  0.0149  0.0050  0.1608  0.0578  0.2815  0.0174  0.2076 </r>
       </set>
       <set comment="band 2">
        <r>  0.0000  0.0126  0.0147  0.0115  0.3198  0.1830  0.2855  0.0200  0.0036 </r>
       </set>
       <set comment="band 3">
        <r>  0.0000  0.0062  0.0029  0.1002  0.0728  0.0296  0.1964  0.1599  0.2992 </r>
       </set>
       <set comment="band 4">
        <r>  0.0075  0.0111  0.0041  0.0014  0.2165  0.5672  0.0382  0.0758  0.0114 </r>
       </set>
       <set comment="band 5">
        <r>  0.0082  0.0010  0.0004  0.0001  0.0083  0.0607  0.0197  0.6266  0.2476 </r>
       </set>
       <set comment="band 6">
        <r>  0.5326  0.0339  0.0127  0.0042  0.0355  0.0194  0.0839  0.0036  0.1074 </r>
       </set>
       <set comment="band 7">
        <r>  0.0000  0.0316  0.0081  0.4342  0.1028  0.0006  0.0106  0.0748  0.1127 </r>
       </set>
       <set comment="band 8">
        <r>  0.1133  0.3218  0.1207  0.0402  0.0911  0.0300  0.0147  0.0192  0.0402 </r>
       </set>
       <set comment="band 9">
        <r>  0.0000  0.0692  0.2627  0.0207  0.1068  0.0780  0.1356  0.0028  0.0001 </r>
       </set>
       <set comment="band 10">
        <r>  0.0000  0.0636  0.1480  0.0022  0.0001  0.0135  0.0480  0.0121  0.0286 </r>
       </set>
       <set comment="band 11">
        <r>  0.0002  0.0113  0.0042  0.0014  0.0239  0.1435  0.1645  0.0255  0.0285 </r>
       </set>
       <set comment="band 12">
        <r>  0.0007  0.0513  0.0857  0.0211  0.0116  0.0150  0.0910  0.0510  0.0929 </r>
       </set>
      </set>
      <set comment="kpoint 106">
       <set comment="band 1">
        <r>  0.0763  0.0398  0.0149  0.0050  0.1671  0.0516  0.2127  0.2801  0.0137 </r>
       </set>
       <set comment="band 2">
        <r>  0.0000  0.0126  0.0236  0.0026  0.4266  0.0761  0.0450  0.1269  0.1373 </r>
       </set>
       <set comment="band 3">
        <r>  0.0000  0.0062  0.0611  0.0420  0.0002  0.1022  0.3598  0.0873  0.2085 </r>
       </set>
       <set comment="band 4">
        <r>  0.0075  0.0110  0.0041  0.0014  0.1761  0.6076  0.0632  0.0567  0.0055 </r>
       </set>
       <set comment="band 5">
        <r>  0.0082  0.0010  0.0004  0.0001  0.0670  0.0020  0.0829  0.2561  0.5549 </r>
       </set>
       <set comment="band 6">
        <r>  0.5326  0.0339  0.0127  0.0042  0.0461  0.0088  0.0417  0.1514  0.0018 </r>
       </set>
       <set comment="band 7">
        <r>  0.0000  0.0316  0.2762  0.1662  0.0327  0.0707  0.1683  0.0047  0.0251 </r>
       </set>
       <set comment="band 8">
        <r>  0.1133  0.3218  0.1207  0.0402  0.0000  0.1212  0.0622  0.0118  0.0002 </r>
       </set>
       <set comment="band 9">
        <r>  0.0000  0.0692  0.0173  0.2660  0.1642  0.0206  0.0064  0.0603  0.0719 </r>
       </set>
       <set comment="band 10">
        <r>  0.0000  0.0636  0.0542  0.0960  0.0093  0.0042  0.0271  0.0213  0.0401 </r>
       </set>
       <set comment="band 11">
        <r>  0.0002  0.0113  0.0042  0.0014  0.1643  0.0031  0.0785  0.0884  0.0516 </r>
       </set>
       <set comment="band 12">
        <r>  0.0082  0.0477  0.0774  0.0341  0.0006  0.0144  0.1101  0.0612  0.0758 </r>
       </set>
      </set>
      <set comment="kpoint 107">
       <set comment="band 1">
        <r>  0.0299  0.0102  0.0153  0.0051  0.4968  0.0154  0.1863  0.0077  0.0621 </r>
       </set>
       <set comment="band 2">
        <r>  0.0000  0.0127  0.0191  0.0064  0.1884  0.0000  0.6358  0.0000  0.0235 </r>
       </set>
       <set comment="band 3">
        <r>  0.0000  0.0395  0.0000  0.0791  0.0423  0.1269  0.0000  0.2538  0.3384 </r>
       </set>
       <set comment="band 4">
        <r>  0.0246  0.0027  0.0041  0.0013  0.0161  0.5889  0.0060  0.2945  0.0020 </r>
       </set>
       <set comment="band 5">
        <r>  0.0000  0.0000  0.0000  0.0000  0.0549  0.1646  0.0000  0.3291  0.4388 </r>
       </set>
       <set comment="band 6">
        <r>  0.0000  0.1770  0.0000  0.3540  0.0140  0.0421  0.0000  0.0842  0.1123 </r>
       </set>
       <set comment="band 7">
        <r>  0.6789  0.0028  0.0042  0.0014  0.0566  0.0276  0.0212  0.0138  0.0071 </r>
       </set>
       <set comment="band 8">
        <r>  0.0000  0.1938  0.2907  0.0969  0.0329  0.0000  0.1110  0.0000  0.0041 </r>
       </set>
       <set comment="band 9">
        <r>  0.0004  0.1226  0.1839  0.0613  0.1869  0.0466  0.0701  0.0233  0.0234 </r>
       </set>
       <set comment="band 10">
        <r>  0.0000  0.0031  0.0047  0.0016  0.1231  0.0000  0.4155  0.0000  0.0154 </r>
       </set>
       <set comment="band 11">
        <r>  0.1027  0.0789  0.1183  0.0394  0.1183  0.0068  0.0443  0.0034  0.0148 </r>
       </set>
       <set comment="band 12">
        <r>  0.0000  0.0036  0.0000  0.0071  0.0103  0.0310  0.0000  0.0619  0.0826 </r>
       </set>
      </set>
      <set comment="kpoint 108">
       <set comment="band 1">
        <r>  0.0299  0.0102  0.0000  0.0204  0.0600  0.4522  0.0225  0.2261  0.0075 </r>
       </set>
       <set comment="band 2">
        <r>  0.0000  0.0127  0.0191  0.0064  0.0471  0.1413  0.0000  0.2826  0.3768 </r>
       </set>
       <set comment="band 3">
        <r>  0.0000  0.0395  0.0593  0.0198  0.0423  0.1269  0.0000  0.2538  0.3384 </r>
       </set>
       <set comment="band 4">
        <r>  0.0246  0.0027  0.0000  0.0054  0.5300  0.0750  0.1988  0.0375  0.0663 </r>
       </set>
       <set comment="band 5">
        <r>  0.0000  0.0000  0.0000  0.0000  0.2194  0.0000  0.7405  0.0000  0.0274 </r>
       </set>
       <set comment="band 6">
        <r>  0.0000  0.1770  0.2655  0.0885  0.0140  0.0421  0.0000  0.0842  0.1123 </r>
       </set>
       <set comment="band 7">
        <r>  0.6789  0.0028  0.0000  0.0057  0.0691  0.0151  0.0259  0.0076  0.0086 </r>
       </set>
       <set comment="band 8">
        <r>  0.0000  0.1938  0.2907  0.0969  0.0082  0.0247  0.0000  0.0494  0.0658 </r>
       </set>
       <set comment="band 9">
        <r>  0.0004  0.1226  0.0000  0.2452  0.0009  0.2326  0.0003  0.1163  0.0001 </r>
       </set>
       <set comment="band 10">
        <r>  0.0000  0.0031  0.0047  0.0016  0.0308  0.0923  0.0000  0.1847  0.2462 </r>
       </set>
       <set comment="band 11">
        <r>  0.1027  0.0789  0.0000  0.1578  0.0594  0.0658  0.0223  0.0329  0.0074 </r>
       </set>
       <set comment="band 12">
        <r>  0.0000  0.0036  0.0053  0.0018  0.0103  0.0310  0.0000  0.0619  0.0826 </r>
       </set>
      </set>
      <set comment="kpoint 109">
       <set comment="band 1">
        <r>  0.0299  0.0102  0.0153  0.0051  0.2114  0.3007  0.0793  0.1504  0.0264 </r>
       </set>
       <set comment="band 2">
        <r>  0.0000  0.0127  0.0000  0.0255  0.0471  0.1413  0.0000  0.2825  0.3767 </r>
       </set>
       <set comment="band 3">
        <r>  0.0000  0.0395  0.0593  0.0198  0.1692  0.0000  0.5711  0.0000  0.0212 </r>
       </set>
       <set comment="band 4">
        <r>  0.0246  0.0027  0.0041  0.0014  0.3614  0.2436  0.1355  0.1218  0.0452 </r>
       </set>
       <set comment="band 5">
        <r>  0.0000  0.0000  0.0000  0.0000  0.0549  0.1646  0.0000  0.3291  0.4388 </r>
       </set>
       <set comment="band 6">
        <r>  0.0000  0.1770  0.2655  0.0885  0.0561  0.0000  0.1894  0.0000  0.0070 </r>
       </set>
       <set comment="band 7">
        <r>  0.6789  0.0028  0.0043  0.0014  0.0006  0.0836  0.0002  0.0418  0.0001 </r>
       </set>
       <set comment="band 8">
        <r>  0.0000  0.1938  0.0000  0.3876  0.0082  0.0247  0.0000  0.0493  0.0658 </r>
       </set>
       <set comment="band 9">
        <r>  0.0004  0.1226  0.1839  0.0613  0.1625  0.0710  0.0609  0.0355  0.0203 </r>
       </set>
       <set comment="band 10">
        <r>  0.0000  0.0031  0.0000  0.0063  0.0308  0.0924  0.0000  0.1846  0.2462 </r>
       </set>
       <set comment="band 11">
        <r>  0.1027  0.0789  0.1183  0.0394  0.0101  0.1150  0.0038  0.0576  0.0013 </r>
       </set>
       <set comment="band 12">
        <r>  0.0000  0.0036  0.0053  0.0018  0.0413  0.0000  0.1393  0.0000  0.0052 </r>
       </set>
      </set>
      <set comment="kpoint 110">
       <set comment="band 1">
        <r>  0.0299  0.0102  0.0153  0.0051  0.4968  0.0154  0.1863  0.0077  0.0621 </r>
       </set>
       <set comment="band 2">
        <r>  0.0000  0.0127  0.0191  0.0064  0.1884  0.0000  0.6358  0.0000  0.0235 </r>
       </set>
       <set comment="band 3">
        <r>  0.0000  0.0395  0.0000  0.0791  0.0423  0.1269  0.0000  0.2538  0.3384 </r>
       </set>
       <set comment="band 4">
        <r>  0.0246  0.0027  0.0041  0.0014  0.0161  0.5889  0.0060  0.2945  0.0020 </r>
       </set>
       <set comment="band 5">
        <r>  0.0000  0.0000  0.0000  0.0000  0.0549  0.1646  0.0000  0.3291  0.4388 </r>
       </set>
       <set comment="band 6">
        <r>  0.0000  0.1770  0.0000  0.3540  0.0140  0.0421  0.0000  0.0842  0.1123 </r>
       </set>
       <set comment="band 7">
        <r>  0.6789  0.0028  0.0042  0.0014  0.0566  0.0276  0.0212  0.0138  0.0071 </r>
       </set>
       <set comment="band 8">
        <r>  0.0000  0.1938  0.2907  0.0969  0.0329  0.0000  0.1110  0.0000  0.0041 </r>
       </set>
       <set comment="band 9">
        <r>  0.0004  0.1226  0.1839  0.0613  0.1869  0.0466  0.0701  0.0233  0.0234 </r>
       </set>
       <set comment="band 10">
        <r>  0.0000  0.0031  0.0047  0.0016  0.1231  0.0000  0.4155  0.0000  0.0154 </r>
       </set>
       <set comment="band 11">
        <r>  0.1027  0.0789  0.1183  0.0394  0.1183  0.0068  0.0443  0.0034  0.0148 </r>
       </set>
       <set comment="band 12">
        <r>  0.0000  0.0036  0.0000  0.0071  0.0103  0.0310  0.0000  0.0619  0.0826 </r>
       </set>
      </set>
      <set comment="kpoint 111">
       <set comment="band 1">
        <r>  0.0299  0.0102  0.0000  0.0204  0.0600  0.4521  0.0225  0.2261  0.0075 </r>
       </set>
       <set comment="band 2">
        <r>  0.0000  0.0127  0.0191  0.0064  0.0471  0.1413  0.0000  0.2825  0.3767 </r>
       </set>
       <set comment="band 3">
        <r>  0.0000  0.0395  0.0593  0.0198  0.0423  0.1269  0.0000  0.2538  0.3384 </r>
       </set>
       <set comment="band 4">
        <r>  0.0246  0.0027  0.0000  0.0054  0.5300  0.0750  0.1988  0.0375  0.0663 </r>
       </set>
       <set comment="band 5">
        <r>  0.0000  0.0000  0.0000  0.0000  0.2194  0.0000  0.7405  0.0000  0.0274 </r>
       </set>
       <set comment="band 6">
        <r>  0.0000  0.1770  0.2655  0.0885  0.0140  0.0421  0.0000  0.0842  0.1123 </r>
       </set>
       <set comment="band 7">
        <r>  0.6789  0.0028  0.0000  0.0057  0.0691  0.0151  0.0259  0.0076  0.0086 </r>
       </set>
       <set comment="band 8">
        <r>  0.0000  0.1938  0.2907  0.0969  0.0082  0.0247  0.0000  0.0493  0.0658 </r>
       </set>
       <set comment="band 9">
        <r>  0.0004  0.1226  0.0000  0.2452  0.0009  0.2326  0.0003  0.1163  0.0001 </r>
       </set>
       <set comment="band 10">
        <r>  0.0000  0.0031  0.0047  0.0016  0.0308  0.0924  0.0000  0.1846  0.2462 </r>
       </set>
       <set comment="band 11">
        <r>  0.1027  0.0789  0.0000  0.1578  0.0593  0.0658  0.0223  0.0329  0.0074 </r>
       </set>
       <set comment="band 12">
        <r>  0.0000  0.0036  0.0053  0.0018  0.0103  0.0310  0.0000  0.0619  0.0826 </r>
       </set>
      </set>
      <set comment="kpoint 112">
       <set comment="band 1">
        <r>  0.0299  0.0102  0.0153  0.0051  0.2114  0.3007  0.0793  0.1503  0.0264 </r>
       </set>
       <set comment="band 2">
        <r>  0.0000  0.0127  0.0000  0.0255  0.0471  0.1413  0.0000  0.2826  0.3768 </r>
       </set>
       <set comment="band 3">
        <r>  0.0000  0.0395  0.0593  0.0198  0.1692  0.0000  0.5711  0.0000  0.0212 </r>
       </set>
       <set comment="band 4">
        <r>  0.0246  0.0027  0.0041  0.0014  0.3614  0.2436  0.1355  0.1218  0.0452 </r>
       </set>
       <set comment="band 5">
        <r>  0.0000  0.0000  0.0000  0.0000  0.0549  0.1646  0.0000  0.3291  0.4388 </r>
       </set>
       <set comment="band 6">
        <r>  0.0000  0.1770  0.2655  0.0885  0.0561  0.0000  0.1894  0.0000  0.0070 </r>
       </set>
       <set comment="band 7">
        <r>  0.6789  0.0028  0.0043  0.0014  0.0006  0.0836  0.0002  0.0418  0.0001 </r>
       </set>
       <set comment="band 8">
        <r>  0.0000  0.1938  0.0000  0.3876  0.0082  0.0247  0.0000  0.0493  0.0658 </r>
       </set>
       <set comment="band 9">
        <r>  0.0004  0.1226  0.1839  0.0613  0.1625  0.0710  0.0609  0.0355  0.0203 </r>
       </set>
       <set comment="band 10">
        <r>  0.0000  0.0031  0.0000  0.0063  0.0308  0.0923  0.0000  0.1847  0.2462 </r>
       </set>
       <set comment="band 11">
        <r>  0.1027  0.0789  0.1183  0.0394  0.0101  0.1151  0.0038  0.0575  0.0013 </r>
       </set>
       <set comment="band 12">
        <r>  0.0000  0.0036  0.0053  0.0018  0.0413  0.0000  0.1393  0.0000  0.0052 </r>
       </set>
      </set>
     </set>
    </set>
   </array>
  </projected>
 </calculation>
 <structure name="finalpos" >
  <crystal>
   <varray name="basis" >
    <v>       2.55173500       0.00000500       1.47325900 </v>
    <v>       0.85058400       2.40579500       1.47325900 </v>
    <v>       0.00000700       0.00000500       2.94649600 </v>
   </varray>
   <i name="volume">     18.08834559 </i>
   <varray name="rec_basis" >
    <v>       0.39189090      -0.13855507      -0.00000070 </v>
    <v>      -0.00000041       0.41566359      -0.00000071 </v>
    <v>      -0.19594671      -0.13855529       0.33938687 </v>
   </varray>
  </crystal>
  <varray name="positions" >
   <v>       0.00000000       0.00000000       0.00000000 </v>
  </varray>
 </structure>
</modeling>
