 running on   16 total cores
 distrk:  each k-point on   16 cores,    1 groups
 distr:  one band on    4 cores,    4 groups
 vasp.6.2.0 18Jan21 (build Feb  1 2022 01:28:57) complex                         
 POSCAR found type information on POSCAR Pt
 POSCAR found :  1 types and       1 ions
 scaLAPACK will be used
 -----------------------------------------------------------------------------
|                                                                             |
|               ----> ADVICE to this user running VASP <----                  |
|                                                                             |
|     You enforced a specific xc type in the INCAR file but a different       |
|     type was found in the POTCAR file.                                      |
|     I HOPE YOU KNOW WHAT YOU ARE DOING!                                     |
|                                                                             |
 -----------------------------------------------------------------------------

 LDA part: xc-table for Pade appr. of Perdew
 -----------------------------------------------------------------------------
|                                                                             |
|           W    W    AA    RRRRR   N    N  II  N    N   GGGG   !!!           |
|           W    W   A  A   R    R  NN   N  II  NN   N  G    G  !!!           |
|           W    W  A    A  R    R  N N  N  II  N N  N  G       !!!           |
|           W WW W  AAAAAA  RRRRR   N  N N  II  N  N N  G  GGG   !            |
|           WW  WW  A    A  R   R   N   NN  II  N   NN  G    G                |
|           W    W  A    A  R    R  N    N  II  N    N   GGGG   !!!           |
|                                                                             |
|     The requested file  could not be found or opened for reading            |
|     k-point information. Automatic k-point generation is used as a          |
|     fallback, which may lead to unwanted results.                           |
|                                                                             |
 -----------------------------------------------------------------------------

 POSCAR, INCAR and KPOINTS ok, starting setup
 FFT: planning ...
 WAVECAR not read
 entering main loop
       N       E                     dE             d eps       ncg     rms          rms(c)
DAV:   1     0.339876296534E+02    0.33988E+02   -0.45237E+03  2824   0.626E+02
DAV:   2    -0.518756175637E+01   -0.39175E+02   -0.37079E+02  3204   0.146E+02
DAV:   3    -0.570624448102E+01   -0.51868E+00   -0.51725E+00  3228   0.158E+01
DAV:   4    -0.570854814741E+01   -0.23037E-02   -0.23035E-02  3292   0.126E+00
DAV:   5    -0.570856976504E+01   -0.21618E-04   -0.21618E-04  3344   0.113E-01    0.723E+00
DAV:   6    -0.538130449386E+01    0.32727E+00   -0.89399E-01  2928   0.674E+00    0.405E+00
DAV:   7    -0.536796118314E+01    0.13343E-01   -0.46384E-02  3252   0.157E+00    0.217E+00
DAV:   8    -0.536686039579E+01    0.11008E-02   -0.16536E-03  2912   0.279E-01    0.258E-01
DAV:   9    -0.536677044636E+01    0.89949E-04   -0.23795E-04  2260   0.113E-01
   1 F= -.53667704E+01 E0= -.53651340E+01  d E =-.327284E-02
