<?xml version="1.0" encoding="ISO-8859-1"?>
<modeling>
 <generator>
  <i name="program" type="string">vasp </i>
  <i name="version" type="string">6.2.0  </i>
  <i name="subversion" type="string">18Jan21 (build Feb  1 2022 01:28:57) complex                          parallel </i>
  <i name="platform" type="string">LinuxPGI </i>
  <i name="date" type="string">2022 05 17 </i>
  <i name="time" type="string">00:46:45 </i>
 </generator>
 <incar>
  <i type="string" name="PREC">Normal</i>
  <i type="string" name="ALGO">38</i>
  <i type="int" name="ISPIN">     1</i>
  <i name="AMIX">      0.20000000</i>
  <i name="BMIX">      0.00100000</i>
  <i name="AMIN">      0.01000000</i>
  <i type="int" name="NELM">    80</i>
  <i type="int" name="NELMIN">     4</i>
  <i type="int" name="IBRION">     2</i>
  <i name="EDIFF">      0.00010000</i>
  <i name="EDIFFG">     -0.03000000</i>
  <i type="int" name="NSW">   300</i>
  <i type="int" name="ISIF">     0</i>
  <i type="int" name="ISYM">     0</i>
  <i name="SYMPREC">      0.00001000</i>
  <i name="ENCUT">    420.00000000</i>
  <i type="logical" name="LREAL"> T  </i>
  <i type="int" name="ISMEAR">     0</i>
  <i name="SIGMA">      0.05000000</i>
  <i type="logical" name="LWAVE"> F  </i>
  <i type="logical" name="LVTOT"> F  </i>
  <i type="int" name="LORBIT">    11</i>
  <i type="logical" name="LASPH"> F  </i>
  <i type="string" name="GGA">RP</i>
 </incar>
 <primitive_cell>
  <structure name="primitive_cell" >
   <crystal>
    <varray name="basis" >
     <v>       5.63307200       0.00000000       0.21554300 </v>
     <v>       2.81241200       4.88076200       0.21554300 </v>
     <v>       0.00000000       0.00000000      36.85793800 </v>
    </varray>
    <i name="volume">   1013.36049145 </i>
    <varray name="rec_basis" >
     <v>       0.17752303      -0.10229302       0.00000000 </v>
     <v>       0.00000000       0.20488604       0.00000000 </v>
     <v>      -0.00103814      -0.00059996       0.02713120 </v>
    </varray>
   </crystal>
   <varray name="positions" >
    <v>       0.01562500       0.14062500       0.40625000 </v>
    <v>       0.01562500       0.64062500       0.40625000 </v>
    <v>       0.51562500       0.14062500       0.40625000 </v>
    <v>       0.51562500       0.64062500       0.40625000 </v>
    <v>       0.17187500       0.29687500       0.46875000 </v>
    <v>       0.17187500       0.79687500       0.46875000 </v>
    <v>       0.67187500       0.29687500       0.46875000 </v>
    <v>       0.67187500       0.79687500       0.46875000 </v>
    <v>       0.32812500       0.45312500       0.53125000 </v>
    <v>       0.32812500       0.95312500       0.53125000 </v>
    <v>       0.82812500       0.45312500       0.53125000 </v>
    <v>       0.82812500       0.95312500       0.53125000 </v>
    <v>       0.48437500       0.10937500       0.59375000 </v>
    <v>       0.48437500       0.60937500       0.59375000 </v>
    <v>       0.98437500       0.10937500       0.59375000 </v>
    <v>       0.98437500       0.60937500       0.59375000 </v>
   </varray>
  </structure>
  <varray name="primitive_index" >
   <v type="int" >        1 </v>
   <v type="int" >        2 </v>
   <v type="int" >        3 </v>
   <v type="int" >        4 </v>
   <v type="int" >        5 </v>
   <v type="int" >        6 </v>
   <v type="int" >        7 </v>
   <v type="int" >        8 </v>
   <v type="int" >        9 </v>
   <v type="int" >       10 </v>
   <v type="int" >       11 </v>
   <v type="int" >       12 </v>
   <v type="int" >       13 </v>
   <v type="int" >       14 </v>
   <v type="int" >       15 </v>
   <v type="int" >       16 </v>
  </varray>
 </primitive_cell>
 <kpoints>
  <generation param="Gamma">
   <v type="int" name="divisions">       2        2        1 </v>
   <v name="usershift">      0.00000000       0.00000000       0.00000000 </v>
   <v name="genvec1">      0.50000000       0.00000000       0.00000000 </v>
   <v name="genvec2">      0.00000000       0.50000000       0.00000000 </v>
   <v name="genvec3">      0.00000000       0.00000000       1.00000000 </v>
   <v name="shift">      0.00000000       0.00000000       0.00000000 </v>
  </generation>
  <varray name="kpointlist" >
   <v>       0.00000000       0.00000000       0.00000000 </v>
   <v>       0.50000000       0.00000000       0.00000000 </v>
   <v>       0.00000000       0.50000000       0.00000000 </v>
   <v>       0.50000000       0.50000000       0.00000000 </v>
  </varray>
  <varray name="weights" >
   <v>       0.25000000 </v>
   <v>       0.25000000 </v>
   <v>       0.25000000 </v>
   <v>       0.25000000 </v>
  </varray>
 </kpoints>
 <parameters>
  <separator name="general" >
   <i type="string" name="SYSTEM">unknown system</i>
   <i type="logical" name="LCOMPAT"> F  </i>
  </separator>
  <separator name="electronic" >
   <i type="string" name="PREC">normal</i>
   <i name="ENMAX">    420.00000000</i>
   <i name="ENAUG">    358.96600000</i>
   <i name="EDIFF">      0.00010000</i>
   <i type="int" name="IALGO">    38</i>
   <i type="int" name="IWAVPR">    11</i>
   <i type="int" name="NBANDS">    96</i>
   <i type="int" name="NBANDSLOW">    -1</i>
   <i type="int" name="NBANDSHIGH">    -1</i>
   <i name="NELECT">    160.00000000</i>
   <i type="int" name="TURBO">     0</i>
   <i type="int" name="IRESTART">     0</i>
   <i type="int" name="NREBOOT">     0</i>
   <i type="int" name="NMIN">     0</i>
   <i name="EREF">      0.00000000</i>
   <separator name="electronic smearing" >
    <i type="int" name="ISMEAR">     0</i>
    <i name="SIGMA">      0.05000000</i>
    <i name="KSPACING">      0.50000000</i>
    <i type="logical" name="KGAMMA"> T  </i>
    <i type="logical" name="KBLOWUP"> T  </i>
   </separator>
   <separator name="electronic projectors" >
    <i type="logical" name="LREAL"> T  </i>
    <v name="ROPT">      0.00000000</v>
    <i type="int" name="LMAXPAW">  -100</i>
    <i type="int" name="LMAXMIX">     2</i>
    <i type="logical" name="NLSPLINE"> F  </i>
   </separator>
   <separator name="electronic startup" >
    <i type="int" name="ISTART">     0</i>
    <i type="int" name="ICHARG">     2</i>
    <i type="int" name="INIWAV">     1</i>
   </separator>
   <separator name="electronic spin" >
    <i type="int" name="ISPIN">     1</i>
    <i type="logical" name="LNONCOLLINEAR"> F  </i>
    <v name="MAGMOM">      1.00000000      1.00000000      1.00000000      1.00000000      1.00000000      1.00000000      1.00000000      1.00000000      1.00000000      1.00000000      1.00000000      1.00000000      1.00000000      1.00000000      1.00000000      1.00000000</v>
    <i name="NUPDOWN">     -1.00000000</i>
    <i type="logical" name="LSORBIT"> F  </i>
    <v name="SAXIS">      0.00000000      0.00000000      1.00000000</v>
    <i type="logical" name="LSPIRAL"> F  </i>
    <v name="QSPIRAL">      0.00000000      0.00000000      0.00000000</v>
    <i type="logical" name="LZEROZ"> F  </i>
   </separator>
   <separator name="electronic exchange-correlation" >
    <i type="logical" name="LASPH"> F  </i>
    <i type="logical" name="LMETAGGA"> F  </i>
   </separator>
   <separator name="electronic convergence" >
    <i type="int" name="NELM">    80</i>
    <i type="int" name="NELMDL">    -5</i>
    <i type="int" name="NELMIN">     4</i>
    <i name="ENINI">    420.00000000</i>
    <separator name="electronic convergence detail" >
     <i type="logical" name="LDIAG"> T  </i>
     <i type="logical" name="LSUBROT"> F  </i>
     <i name="WEIMIN">      0.00100000</i>
     <i name="EBREAK">      0.00000026</i>
     <i name="DEPER">      0.30000000</i>
     <i type="int" name="NRMM">     4</i>
     <i name="TIME">      0.40000000</i>
    </separator>
   </separator>
   <separator name="electronic mixer" >
    <i name="AMIX">      0.20000000</i>
    <i name="BMIX">      0.00100000</i>
    <i name="AMIN">      0.01000000</i>
    <i name="AMIX_MAG">      0.80000000</i>
    <i name="BMIX_MAG">      0.00100000</i>
    <separator name="electronic mixer details" >
     <i type="int" name="IMIX">     4</i>
     <i type="logical" name="MIXFIRST"> F  </i>
     <i type="int" name="MAXMIX">   -45</i>
     <i name="WC">    100.00000000</i>
     <i type="int" name="INIMIX">     1</i>
     <i type="int" name="MIXPRE">     1</i>
     <i type="int" name="MREMOVE">     5</i>
    </separator>
   </separator>
   <separator name="electronic dipolcorrection" >
    <i type="logical" name="LDIPOL"> F  </i>
    <i type="logical" name="LMONO"> F  </i>
    <i type="int" name="IDIPOL">     0</i>
    <i name="EPSILON">      1.00000000</i>
    <v name="DIPOL">   -100.00000000   -100.00000000   -100.00000000</v>
    <i name="EFIELD">      0.00000000</i>
   </separator>
  </separator>
  <separator name="grids" >
   <i type="int" name="NGX">    28</i>
   <i type="int" name="NGY">    28</i>
   <i type="int" name="NGZ">   192</i>
   <i type="int" name="NGXF">    56</i>
   <i type="int" name="NGYF">    56</i>
   <i type="int" name="NGZF">   384</i>
   <i type="logical" name="ADDGRID"> F  </i>
  </separator>
  <separator name="ionic" >
   <i type="int" name="NSW">   300</i>
   <i type="int" name="IBRION">     2</i>
   <i type="int" name="MDALGO">     0</i>
   <i type="int" name="ISIF">     0</i>
   <i name="PSTRESS">      0.00000000</i>
   <i name="EDIFFG">     -0.03000000</i>
   <i type="int" name="NFREE">     1</i>
   <i name="POTIM">      0.50000000</i>
   <i name="SMASS">     -3.00000000</i>
   <i name="SCALEE">      1.00000000</i>
  </separator>
  <separator name="ionic md" >
   <i name="TEBEG">      0.00010000</i>
   <i name="TEEND">      0.00010000</i>
   <i type="int" name="NBLOCK">     1</i>
   <i type="int" name="KBLOCK">   300</i>
   <i type="int" name="NPACO">   256</i>
   <i name="APACO">     16.00000000</i>
  </separator>
  <separator name="symmetry" >
   <i type="int" name="ISYM">     0</i>
   <i name="SYMPREC">      0.00001000</i>
  </separator>
  <separator name="dos" >
   <i type="int" name="LORBIT">    11</i>
   <v name="RWIGS">     -1.00000000</v>
   <i type="int" name="NEDOS">   301</i>
   <i name="EMIN">     10.00000000</i>
   <i name="EMAX">    -10.00000000</i>
   <i name="EFERMI">      0.00000000</i>
  </separator>
  <separator name="writing" >
   <i type="int" name="NWRITE">     2</i>
   <i type="logical" name="LWAVE"> F  </i>
   <i type="logical" name="LDOWNSAMPLE"> F  </i>
   <i type="logical" name="LCHARG"> T  </i>
   <i type="logical" name="LPARD"> F  </i>
   <i type="logical" name="LVTOT"> F  </i>
   <i type="logical" name="LVHAR"> F  </i>
   <i type="logical" name="LELF"> F  </i>
   <i type="logical" name="LOPTICS"> F  </i>
   <v name="STM">      0.00000000      0.00000000      0.00000000      0.00000000      0.00000000      0.00000000      0.00000000</v>
  </separator>
  <separator name="performance" >
   <i type="int" name="NPAR">     4</i>
   <i type="int" name="NSIM">     4</i>
   <i type="int" name="NBLK">    -1</i>
   <i type="logical" name="LPLANE"> T  </i>
   <i type="logical" name="LSCALAPACK"> T  </i>
   <i type="logical" name="LSCAAWARE"> F  </i>
   <i type="logical" name="LSCALU"> F  </i>
   <i type="logical" name="LASYNC"> F  </i>
   <i type="logical" name="LORBITALREAL"> F  </i>
  </separator>
  <separator name="miscellaneous" >
   <i type="int" name="IDIOT">     3</i>
   <i type="int" name="PHON_NSTRUCT">    -1</i>
   <i type="logical" name="LMUSIC"> F  </i>
   <v name="POMASS">    195.08000000</v>
   <v name="DARWINR">      0.00000000</v>
   <v name="DARWINV">      1.00000000</v>
   <i type="logical" name="LCORR"> T  </i>
  </separator>
  <i type="logical" name="GGA_COMPAT"> T  </i>
  <i type="logical" name="LBERRY"> F  </i>
  <i type="int" name="ICORELEVEL">     0</i>
  <i type="logical" name="LDAU"> F  </i>
  <i type="int" name="I_CONSTRAINED_M">     0</i>
  <separator name="electronic exchange-correlation" >
   <i type="string" name="GGA">RP</i>
   <i type="int" name="VOSKOWN">     0</i>
   <i type="logical" name="LHFCALC"> F  </i>
   <i type="string" name="PRECFOCK"></i>
   <i type="logical" name="LSYMGRAD"> F  </i>
   <i type="logical" name="LHFONE"> F  </i>
   <i type="logical" name="LRHFCALC"> F  </i>
   <i type="logical" name="LTHOMAS"> F  </i>
   <i type="logical" name="LMODELHF"> F  </i>
   <i type="logical" name="LFOCKACE"> F  </i>
   <i name="ENCUT4O">     -1.00000000</i>
   <i type="int" name="EXXOEP">     0</i>
   <i type="int" name="FOURORBIT">     0</i>
   <i name="AEXX">      0.00000000</i>
   <i name="HFALPHA">      0.00000000</i>
   <i name="MCALPHA">      0.00000000</i>
   <i name="ALDAX">      1.00000000</i>
   <i name="AGGAX">      1.00000000</i>
   <i name="ALDAC">      1.00000000</i>
   <i name="AGGAC">      1.00000000</i>
   <i type="int" name="NKREDX">     1</i>
   <i type="int" name="NKREDY">     1</i>
   <i type="int" name="NKREDZ">     1</i>
   <i type="logical" name="SHIFTRED"> F  </i>
   <i type="logical" name="ODDONLY"> F  </i>
   <i type="logical" name="EVENONLY"> F  </i>
   <i type="int" name="LMAXFOCK">     0</i>
   <i type="int" name="NMAXFOCKAE">     0</i>
   <i type="logical" name="LFOCKAEDFT"> F  </i>
   <i name="HFSCREEN">      0.00000000</i>
   <i name="HFSCREENC">      0.00000000</i>
   <i type="int" name="NBANDSGWLOW">     0</i>
  </separator>
  <separator name="vdW DFT" >
   <i type="logical" name="LUSE_VDW"> F  </i>
   <i name="Zab_VDW">     -0.84910000</i>
   <i name="PARAM1">      0.12340000</i>
   <i name="PARAM2">      1.00000000</i>
   <i name="PARAM3">      0.00000000</i>
  </separator>
  <separator name="model GW" >
   <i type="int" name="MODEL_GW">     0</i>
   <i name="MODEL_EPS0">     38.00101843</i>
   <i name="MODEL_ALPHA">      1.00000000</i>
  </separator>
  <separator name="linear response parameters" >
   <i type="logical" name="LEPSILON"> F  </i>
   <i type="logical" name="LRPA"> F  </i>
   <i type="logical" name="LNABLA"> F  </i>
   <i type="logical" name="LVEL"> F  </i>
   <i type="int" name="KINTER">     0</i>
   <i name="CSHIFT">      0.10000000</i>
   <i name="OMEGAMAX">     -1.00000000</i>
   <i name="DEG_THRESHOLD">      0.00200000</i>
   <i name="RTIME">     -0.10000000</i>
   <i name="WPLASMAI">      0.00000000</i>
   <v name="DFIELD">      0.00000000      0.00000000      0.00000000</v>
   <v name="WPLASMA">      0.00000000      0.00000000      0.00000000      0.00000000      0.00000000      0.00000000      0.00000000      0.00000000      0.00000000</v>
  </separator>
  <separator name="orbital magnetization" >
   <i type="logical" name="NUCIND"> F  </i>
   <v name="MAGPOS">      0.00000000      0.00000000      0.00000000</v>
   <i type="logical" name="LNICSALL"> T  </i>
   <i type="logical" name="ORBITALMAG"> F  </i>
   <i type="logical" name="LMAGBLOCH"> F  </i>
   <i type="logical" name="LCHIMAG"> F  </i>
   <i type="logical" name="LGAUGE"> T  </i>
   <i type="int" name="MAGATOM">     0</i>
   <v name="MAGDIPOL">      0.00000000      0.00000000      0.00000000</v>
   <v name="AVECCONST">      0.00000000      0.00000000      0.00000000</v>
  </separator>
  <separator name="response functions" >
   <i type="logical" name="LFINITE_TEMPERATURE"> F  </i>
   <i type="logical" name="LADDER"> F  </i>
   <i type="logical" name="LRPAFORCE"> F  </i>
   <i type="logical" name="LFXC"> F  </i>
   <i type="logical" name="LHARTREE"> T  </i>
   <i type="int" name="IBSE">     0</i>
   <v type="int" name="KPOINT">    -1     0     0     0</v>
   <i type="logical" name="LTCTC"> F  </i>
   <i type="logical" name="LTCTE"> F  </i>
   <i type="logical" name="LTETE"> F  </i>
   <i type="logical" name="LTRIPLET"> F  </i>
   <i type="logical" name="LFXCEPS"> F  </i>
   <i type="logical" name="LFXHEG"> F  </i>
   <i type="int" name="NATURALO">     2</i>
   <i type="logical" name="LHOLEGF"> F  </i>
   <i type="logical" name="L2ORDER"> F  </i>
   <i type="logical" name="LDMP1"> F  </i>
   <i type="logical" name="LMP2LT"> F  </i>
   <i type="logical" name="LSMP2LT"> F  </i>
   <i type="logical" name="LGWLF"> F  </i>
   <i name="ENCUTGW">     -2.00000000</i>
   <i name="ENCUTGWSOFT">     -2.00000000</i>
   <i name="ENCUTLF">     -1.00000000</i>
   <i type="logical" name="LESF_SPLINES"> F  </i>
   <i type="int" name="LMAXMP2">    -1</i>
   <i name="SCISSOR">      0.00000000</i>
   <i type="int" name="NOMEGA">     0</i>
   <i type="int" name="NOMEGAR">     0</i>
   <i type="int" name="NBANDSGW">    -1</i>
   <i type="int" name="NBANDSO">    -1</i>
   <i type="int" name="NBANDSV">    -1</i>
   <i type="int" name="NELM">    80</i>
   <i type="int" name="NELMHF">     1</i>
   <i type="int" name="DIM">     3</i>
   <i type="int" name="IESPILON">     4</i>
   <i type="int" name="ANTIRES">     0</i>
   <i name="OMEGAMAX">    -30.00000000</i>
   <i name="OMEGAMIN">    -30.00000000</i>
   <i name="OMEGATL">   -200.00000000</i>
   <i type="int" name="OMEGAGRID">     0</i>
   <i name="CSHIFT">     -0.10000000</i>
   <i type="logical" name="LSELFENERGY"> F  </i>
   <i type="logical" name="LSPECTRAL"> F  </i>
   <i type="logical" name="LSPECTRALGW"> F  </i>
   <i type="logical" name="LSINGLES"> F  </i>
   <i type="logical" name="LFERMIGW"> F  </i>
   <i type="logical" name="ODDONLYGW"> F  </i>
   <i type="logical" name="EVENONLYGW"> F  </i>
   <i type="int" name="NKREDLFX">     1</i>
   <i type="int" name="NKREDLFY">     1</i>
   <i type="int" name="NKREDLFZ">     1</i>
   <i type="int" name="MAXMEM">  2800</i>
   <i type="int" name="TELESCOPE">     0</i>
   <i type="int" name="NTAUPAR">    -1</i>
   <i type="int" name="NOMEGAPAR">    -1</i>
   <i name="DAMP_NEWTON">      0.80000001</i>
   <i name="LAMBDA">      1.00000000</i>
  </separator>
  <separator name="External order field" >
   <i name="OFIELD_KAPPA">      0.00000000</i>
   <v name="OFIELD_K">      0.00000000      0.00000000      0.00000000</v>
   <i name="OFIELD_Q6_NEAR">      0.00000000</i>
   <i name="OFIELD_Q6_FAR">      0.00000000</i>
   <i name="OFIELD_A">      0.00000000</i>
  </separator>
 </parameters>
 <atominfo>
  <atoms>      16 </atoms>
  <types>       1 </types>
  <array name="atoms" >
   <dimension dim="1">ion</dimension>
   <field type="string">element</field>
   <field type="int">atomtype</field>
   <set>
    <rc><c>Pt</c><c>   1</c></rc>
    <rc><c>Pt</c><c>   1</c></rc>
    <rc><c>Pt</c><c>   1</c></rc>
    <rc><c>Pt</c><c>   1</c></rc>
    <rc><c>Pt</c><c>   1</c></rc>
    <rc><c>Pt</c><c>   1</c></rc>
    <rc><c>Pt</c><c>   1</c></rc>
    <rc><c>Pt</c><c>   1</c></rc>
    <rc><c>Pt</c><c>   1</c></rc>
    <rc><c>Pt</c><c>   1</c></rc>
    <rc><c>Pt</c><c>   1</c></rc>
    <rc><c>Pt</c><c>   1</c></rc>
    <rc><c>Pt</c><c>   1</c></rc>
    <rc><c>Pt</c><c>   1</c></rc>
    <rc><c>Pt</c><c>   1</c></rc>
    <rc><c>Pt</c><c>   1</c></rc>
   </set>
  </array>
  <array name="atomtypes" >
   <dimension dim="1">type</dimension>
   <field type="int">atomspertype</field>
   <field type="string">element</field>
   <field>mass</field>
   <field>valence</field>
   <field type="string">pseudopotential</field>
   <set>
    <rc><c>  16</c><c>Pt</c><c>    195.08000000</c><c>     10.00000000</c><c>  PAW_PBE Pt 04Feb2005                  </c></rc>
   </set>
  </array>
 </atominfo>
 <structure name="initialpos" >
  <crystal>
   <varray name="basis" >
    <v>       5.63307200       0.00000000       0.21554300 </v>
    <v>       2.81241200       4.88076200       0.21554300 </v>
    <v>       0.00000000       0.00000000      36.85793800 </v>
   </varray>
   <i name="volume">   1013.36049145 </i>
   <varray name="rec_basis" >
    <v>       0.17752303      -0.10229302       0.00000000 </v>
    <v>       0.00000000       0.20488604       0.00000000 </v>
    <v>      -0.00103814      -0.00059996       0.02713120 </v>
   </varray>
  </crystal>
  <varray name="positions" >
   <v>       0.01562500       0.14062500       0.40625000 </v>
   <v>       0.01562500       0.64062500       0.40625000 </v>
   <v>       0.51562500       0.14062500       0.40625000 </v>
   <v>       0.51562500       0.64062500       0.40625000 </v>
   <v>       0.17187500       0.29687500       0.46875000 </v>
   <v>       0.17187500       0.79687500       0.46875000 </v>
   <v>       0.67187500       0.29687500       0.46875000 </v>
   <v>       0.67187500       0.79687500       0.46875000 </v>
   <v>       0.32812500       0.45312500       0.53125000 </v>
   <v>       0.32812500       0.95312500       0.53125000 </v>
   <v>       0.82812500       0.45312500       0.53125000 </v>
   <v>       0.82812500       0.95312500       0.53125000 </v>
   <v>       0.48437500       0.10937500       0.59375000 </v>
   <v>       0.48437500       0.60937500       0.59375000 </v>
   <v>       0.98437500       0.10937500       0.59375000 </v>
   <v>       0.98437500       0.60937500       0.59375000 </v>
  </varray>
  <varray name="selective"  type="logical" >
   <v type="logical" >  F  F  F </v>
   <v type="logical" >  F  F  F </v>
   <v type="logical" >  F  F  F </v>
   <v type="logical" >  F  F  F </v>
   <v type="logical" >  F  F  F </v>
   <v type="logical" >  F  F  F </v>
   <v type="logical" >  F  F  F </v>
   <v type="logical" >  F  F  F </v>
   <v type="logical" >  T  T  T </v>
   <v type="logical" >  T  T  T </v>
   <v type="logical" >  T  T  T </v>
   <v type="logical" >  T  T  T </v>
   <v type="logical" >  T  T  T </v>
   <v type="logical" >  T  T  T </v>
   <v type="logical" >  T  T  T </v>
   <v type="logical" >  T  T  T </v>
  </varray>
  <nose>
   <v>      -3.00000000       0.00000000       0.00010000       0.00010000 </v>
  </nose>
 </structure>
 <calculation>
  <scstep>
   <time name="dav">    1.86    1.87</time>
   <time name="total">    1.99    2.00</time>
   <energy>
    <i name="alphaZ">    240.14076488 </i>
    <i name="ewald"> 135059.71243143 </i>
    <i name="hartreedc">-146917.20164402 </i>
    <i name="XCdc">     47.90752984 </i>
    <i name="pawpsdc">  11147.29520678 </i>
    <i name="pawaedc"> -10679.33236820 </i>
    <i name="eentropy">     -0.01096982 </i>
    <i name="bandstr">    551.50728116 </i>
    <i name="atom">  11653.10734919 </i>
    <i name="e_fr_energy">   1103.12558125 </i>
    <i name="e_wo_entrp">   1103.13655107 </i>
    <i name="e_0_energy">   1103.13106616 </i>
   </energy>
  </scstep>
  <scstep>
   <time name="dav">    2.36    2.36</time>
   <time name="total">    2.36    2.36</time>
   <energy>
    <i name="e_fr_energy">     12.25204402 </i>
    <i name="e_wo_entrp">     12.26893172 </i>
    <i name="e_0_energy">     12.26048787 </i>
   </energy>
  </scstep>
  <scstep>
   <time name="dav">    2.08    2.09</time>
   <time name="total">    2.09    2.09</time>
   <energy>
    <i name="e_fr_energy">    -85.87492508 </i>
    <i name="e_wo_entrp">    -85.81260477 </i>
    <i name="e_0_energy">    -85.84376492 </i>
   </energy>
  </scstep>
  <scstep>
   <time name="dav">    2.31    2.32</time>
   <time name="total">    2.31    2.32</time>
   <energy>
    <i name="e_fr_energy">    -89.76564001 </i>
    <i name="e_wo_entrp">    -89.66382101 </i>
    <i name="e_0_energy">    -89.71473051 </i>
   </energy>
  </scstep>
  <scstep>
   <time name="dav">    2.15    2.16</time>
   <time name="total">    2.28    2.29</time>
   <energy>
    <i name="e_fr_energy">    -89.87905035 </i>
    <i name="e_wo_entrp">    -89.77697047 </i>
    <i name="e_0_energy">    -89.82801041 </i>
   </energy>
  </scstep>
  <scstep>
   <time name="dav">    1.90    1.90</time>
   <time name="total">    2.16    2.17</time>
   <energy>
    <i name="e_fr_energy">    -91.95754780 </i>
    <i name="e_wo_entrp">    -91.92368082 </i>
    <i name="e_0_energy">    -91.94061431 </i>
   </energy>
  </scstep>
  <scstep>
   <time name="dav">    1.95    1.96</time>
   <time name="total">    2.20    2.21</time>
   <energy>
    <i name="e_fr_energy">    -85.95805869 </i>
    <i name="e_wo_entrp">    -85.93330003 </i>
    <i name="e_0_energy">    -85.94567936 </i>
   </energy>
  </scstep>
  <scstep>
   <time name="dav">    1.90    1.91</time>
   <time name="total">    2.15    2.16</time>
   <energy>
    <i name="e_fr_energy">    -85.38301244 </i>
    <i name="e_wo_entrp">    -85.33179036 </i>
    <i name="e_0_energy">    -85.35740140 </i>
   </energy>
  </scstep>
  <scstep>
   <time name="dav">    2.51    2.52</time>
   <time name="total">    2.76    2.78</time>
   <energy>
    <i name="e_fr_energy">   -145.20591519 </i>
    <i name="e_wo_entrp">   -145.17939064 </i>
    <i name="e_0_energy">   -145.19265291 </i>
   </energy>
  </scstep>
  <scstep>
   <time name="dav">    2.40    2.41</time>
   <time name="total">    2.64    2.65</time>
   <energy>
    <i name="e_fr_energy">    -89.77269060 </i>
    <i name="e_wo_entrp">    -89.73544703 </i>
    <i name="e_0_energy">    -89.75406882 </i>
   </energy>
  </scstep>
  <scstep>
   <time name="dav">    1.97    1.98</time>
   <time name="total">    2.24    2.25</time>
   <energy>
    <i name="e_fr_energy">    -95.65921065 </i>
    <i name="e_wo_entrp">    -95.62001467 </i>
    <i name="e_0_energy">    -95.63961266 </i>
   </energy>
  </scstep>
  <scstep>
   <time name="dav">    2.16    2.16</time>
   <time name="total">    2.41    2.42</time>
   <energy>
    <i name="e_fr_energy">    -88.90760723 </i>
    <i name="e_wo_entrp">    -88.82538889 </i>
    <i name="e_0_energy">    -88.86649806 </i>
   </energy>
  </scstep>
  <scstep>
   <time name="dav">    2.11    2.13</time>
   <time name="total">    2.35    2.38</time>
   <energy>
    <i name="e_fr_energy">    -88.52392194 </i>
    <i name="e_wo_entrp">    -88.44642457 </i>
    <i name="e_0_energy">    -88.48517326 </i>
   </energy>
  </scstep>
  <scstep>
   <time name="dav">    2.01    2.02</time>
   <time name="total">    2.26    2.27</time>
   <energy>
    <i name="e_fr_energy">    -84.97779628 </i>
    <i name="e_wo_entrp">    -84.91632793 </i>
    <i name="e_0_energy">    -84.94706211 </i>
   </energy>
  </scstep>
  <scstep>
   <time name="dav">    2.05    2.06</time>
   <time name="total">    2.30    2.31</time>
   <energy>
    <i name="e_fr_energy">    -85.01163264 </i>
    <i name="e_wo_entrp">    -84.96642077 </i>
    <i name="e_0_energy">    -84.98902670 </i>
   </energy>
  </scstep>
  <scstep>
   <time name="dav">    2.06    2.07</time>
   <time name="total">    2.31    2.32</time>
   <energy>
    <i name="e_fr_energy">    -84.95593258 </i>
    <i name="e_wo_entrp">    -84.89886931 </i>
    <i name="e_0_energy">    -84.92740095 </i>
   </energy>
  </scstep>
  <scstep>
   <time name="dav">    2.19    2.20</time>
   <time name="total">    2.45    2.46</time>
   <energy>
    <i name="e_fr_energy">    -84.94381063 </i>
    <i name="e_wo_entrp">    -84.89040353 </i>
    <i name="e_0_energy">    -84.91710708 </i>
   </energy>
  </scstep>
  <scstep>
   <time name="dav">    2.02    2.02</time>
   <time name="total">    2.26    2.27</time>
   <energy>
    <i name="e_fr_energy">    -84.91337972 </i>
    <i name="e_wo_entrp">    -84.88152845 </i>
    <i name="e_0_energy">    -84.89745408 </i>
   </energy>
  </scstep>
  <scstep>
   <time name="dav">    2.01    2.02</time>
   <time name="total">    2.27    2.27</time>
   <energy>
    <i name="e_fr_energy">    -84.88724805 </i>
    <i name="e_wo_entrp">    -84.85554349 </i>
    <i name="e_0_energy">    -84.87139577 </i>
   </energy>
  </scstep>
  <scstep>
   <time name="dav">    2.00    2.01</time>
   <time name="total">    2.26    2.27</time>
   <energy>
    <i name="e_fr_energy">    -84.85461923 </i>
    <i name="e_wo_entrp">    -84.82060956 </i>
    <i name="e_0_energy">    -84.83761440 </i>
   </energy>
  </scstep>
  <scstep>
   <time name="dav">    2.04    2.05</time>
   <time name="total">    2.29    2.30</time>
   <energy>
    <i name="e_fr_energy">    -84.84368932 </i>
    <i name="e_wo_entrp">    -84.80911290 </i>
    <i name="e_0_energy">    -84.82640111 </i>
   </energy>
  </scstep>
  <scstep>
   <time name="dav">    1.33    1.34</time>
   <time name="total">    1.58    1.59</time>
   <energy>
    <i name="e_fr_energy">    -84.84317987 </i>
    <i name="e_wo_entrp">    -84.80870231 </i>
    <i name="e_0_energy">    -84.82594109 </i>
   </energy>
  </scstep>
  <scstep>
   <time name="dav">    1.95    1.96</time>
   <time name="total">    2.21    2.22</time>
   <energy>
    <i name="e_fr_energy">    -84.80878210 </i>
    <i name="e_wo_entrp">    -84.77323728 </i>
    <i name="e_0_energy">    -84.79100969 </i>
   </energy>
  </scstep>
  <scstep>
   <time name="dav">    2.04    2.05</time>
   <time name="total">    2.30    2.31</time>
   <energy>
    <i name="e_fr_energy">    -84.78922361 </i>
    <i name="e_wo_entrp">    -84.75503273 </i>
    <i name="e_0_energy">    -84.77212817 </i>
   </energy>
  </scstep>
  <scstep>
   <time name="dav">    2.08    2.09</time>
   <time name="total">    2.33    2.35</time>
   <energy>
    <i name="e_fr_energy">    -84.77969664 </i>
    <i name="e_wo_entrp">    -84.74562947 </i>
    <i name="e_0_energy">    -84.76266305 </i>
   </energy>
  </scstep>
  <scstep>
   <time name="dav">    2.03    2.04</time>
   <time name="total">    2.28    2.30</time>
   <energy>
    <i name="e_fr_energy">    -84.77389189 </i>
    <i name="e_wo_entrp">    -84.73952310 </i>
    <i name="e_0_energy">    -84.75670749 </i>
   </energy>
  </scstep>
  <scstep>
   <time name="dav">    1.99    1.99</time>
   <time name="total">    2.24    2.25</time>
   <energy>
    <i name="e_fr_energy">    -84.77456436 </i>
    <i name="e_wo_entrp">    -84.74021793 </i>
    <i name="e_0_energy">    -84.75739115 </i>
   </energy>
  </scstep>
  <scstep>
   <time name="dav">    1.94    1.94</time>
   <time name="total">    2.19    2.20</time>
   <energy>
    <i name="e_fr_energy">    -84.77373801 </i>
    <i name="e_wo_entrp">    -84.73950759 </i>
    <i name="e_0_energy">    -84.75662280 </i>
   </energy>
  </scstep>
  <scstep>
   <time name="dav">    1.61    1.61</time>
   <time name="total">    1.87    1.87</time>
   <energy>
    <i name="e_fr_energy">    -84.77348953 </i>
    <i name="e_wo_entrp">    -84.73929828 </i>
    <i name="e_0_energy">    -84.75639391 </i>
   </energy>
  </scstep>
  <scstep>
   <time name="dav">    1.25    1.26</time>
   <time name="total">    1.51    1.52</time>
   <energy>
    <i name="e_fr_energy">    -84.77333784 </i>
    <i name="e_wo_entrp">    -84.73916964 </i>
    <i name="e_0_energy">    -84.75625374 </i>
   </energy>
  </scstep>
  <scstep>
   <time name="dav">    1.72    1.72</time>
   <time name="total">    1.98    1.99</time>
   <energy>
    <i name="e_fr_energy">    -84.77239762 </i>
    <i name="e_wo_entrp">    -84.73823001 </i>
    <i name="e_0_energy">    -84.75531382 </i>
   </energy>
  </scstep>
  <scstep>
   <time name="dav">    1.32    1.32</time>
   <time name="total">    1.58    1.58</time>
   <energy>
    <i name="e_fr_energy">    -84.77225070 </i>
    <i name="e_wo_entrp">    -84.73805494 </i>
    <i name="e_0_energy">    -84.75515282 </i>
   </energy>
  </scstep>
  <scstep>
   <time name="dav">    1.22    1.22</time>
   <time name="total">    1.34    1.35</time>
   <energy>
    <i name="alphaZ">    240.14076488 </i>
    <i name="ewald"> 135059.71243143 </i>
    <i name="hartreedc">-146784.72927689 </i>
    <i name="XCdc">     43.45490583 </i>
    <i name="pawpsdc">  14014.71051945 </i>
    <i name="pawaedc"> -13585.30772074 </i>
    <i name="eentropy">     -0.03420862 </i>
    <i name="bandstr">   -725.82699021 </i>
    <i name="atom">  11653.10734919 </i>
    <i name="e_fr_energy">    -84.77222567 </i>
    <i name="e_wo_entrp">    -84.73801705 </i>
    <i name="e_0_energy">    -84.75512136 </i>
   </energy>
  </scstep>
  <structure>
   <crystal>
    <varray name="basis" >
     <v>       5.63307200       0.00000000       0.21554300 </v>
     <v>       2.81241200       4.88076200       0.21554300 </v>
     <v>       0.00000000       0.00000000      36.85793800 </v>
    </varray>
    <i name="volume">   1013.36049145 </i>
    <varray name="rec_basis" >
     <v>       0.17752303      -0.10229302       0.00000000 </v>
     <v>       0.00000000       0.20488604       0.00000000 </v>
     <v>      -0.00103814      -0.00059996       0.02713120 </v>
    </varray>
   </crystal>
   <varray name="positions" >
    <v>       0.01562500       0.14062500       0.40625000 </v>
    <v>       0.01562500       0.64062500       0.40625000 </v>
    <v>       0.51562500       0.14062500       0.40625000 </v>
    <v>       0.51562500       0.64062500       0.40625000 </v>
    <v>       0.17187500       0.29687500       0.46875000 </v>
    <v>       0.17187500       0.79687500       0.46875000 </v>
    <v>       0.67187500       0.29687500       0.46875000 </v>
    <v>       0.67187500       0.79687500       0.46875000 </v>
    <v>       0.32812500       0.45312500       0.53125000 </v>
    <v>       0.32812500       0.95312500       0.53125000 </v>
    <v>       0.82812500       0.45312500       0.53125000 </v>
    <v>       0.82812500       0.95312500       0.53125000 </v>
    <v>       0.48437500       0.10937500       0.59375000 </v>
    <v>       0.48437500       0.60937500       0.59375000 </v>
    <v>       0.98437500       0.10937500       0.59375000 </v>
    <v>       0.98437500       0.60937500       0.59375000 </v>
   </varray>
  </structure>
  <varray name="forces" >
   <v>       0.08433622      -0.03449939      -0.66889204 </v>
   <v>       0.08425820      -0.03454580      -0.66861580 </v>
   <v>       0.08424984      -0.03454403      -0.66879999 </v>
   <v>       0.08431253      -0.03449650      -0.66867099 </v>
   <v>      -0.04229673       0.25060679       0.36283490 </v>
   <v>      -0.04219049       0.25062896       0.36286904 </v>
   <v>      -0.04219844       0.25066456       0.36284595 </v>
   <v>      -0.04231125       0.25060726       0.36292623 </v>
   <v>       0.04209526      -0.25070481      -0.35830882 </v>
   <v>       0.04208560      -0.25067303      -0.35820669 </v>
   <v>       0.04205697      -0.25071802      -0.35832876 </v>
   <v>       0.04206244      -0.25063884      -0.35828944 </v>
   <v>      -0.08416686       0.03456175       0.66417698 </v>
   <v>      -0.08407323       0.03460589       0.66399703 </v>
   <v>      -0.08406470       0.03459845       0.66413653 </v>
   <v>      -0.08415536       0.03454676       0.66432586 </v>
  </varray>
  <energy>
   <i name="e_fr_energy">    -84.77222567 </i>
   <i name="e_wo_entrp">    -84.73801705 </i>
   <i name="e_0_energy">    -84.75512136 </i>
  </energy>
  <time name="totalsc">   73.92   74.22</time>
 </calculation>
 <calculation>
  <scstep>
   <time name="dav">    1.80    1.81</time>
   <time name="total">    2.06    2.07</time>
   <energy>
    <i name="alphaZ">    240.14076488 </i>
    <i name="ewald"> 134748.76617479 </i>
    <i name="hartreedc">-146475.37433860 </i>
    <i name="XCdc">     43.21537652 </i>
    <i name="pawpsdc">  14014.69764218 </i>
    <i name="pawaedc"> -13585.28067825 </i>
    <i name="eentropy">     -0.03362441 </i>
    <i name="bandstr">   -724.03862076 </i>
    <i name="atom">  11653.10734919 </i>
    <i name="e_fr_energy">    -84.79995446 </i>
    <i name="e_wo_entrp">    -84.76633005 </i>
    <i name="e_0_energy">    -84.78314226 </i>
   </energy>
  </scstep>
  <scstep>
   <time name="dav">    1.94    1.95</time>
   <time name="total">    2.19    2.21</time>
   <energy>
    <i name="e_fr_energy">    -84.89310388 </i>
    <i name="e_wo_entrp">    -84.85767185 </i>
    <i name="e_0_energy">    -84.87538786 </i>
   </energy>
  </scstep>
  <scstep>
   <time name="dav">    2.04    2.04</time>
   <time name="total">    2.28    2.29</time>
   <energy>
    <i name="e_fr_energy">    -84.95039292 </i>
    <i name="e_wo_entrp">    -84.91389593 </i>
    <i name="e_0_energy">    -84.93214442 </i>
   </energy>
  </scstep>
  <scstep>
   <time name="dav">    2.12    2.13</time>
   <time name="total">    2.37    2.37</time>
   <energy>
    <i name="e_fr_energy">    -85.10733593 </i>
    <i name="e_wo_entrp">    -85.07141677 </i>
    <i name="e_0_energy">    -85.08937635 </i>
   </energy>
  </scstep>
  <scstep>
   <time name="dav">    1.89    1.90</time>
   <time name="total">    2.14    2.15</time>
   <energy>
    <i name="e_fr_energy">    -85.11178061 </i>
    <i name="e_wo_entrp">    -85.07445907 </i>
    <i name="e_0_energy">    -85.09311984 </i>
   </energy>
  </scstep>
  <scstep>
   <time name="dav">    2.53    2.54</time>
   <time name="total">    2.78    2.79</time>
   <energy>
    <i name="e_fr_energy">    -84.86410837 </i>
    <i name="e_wo_entrp">    -84.83098527 </i>
    <i name="e_0_energy">    -84.84754682 </i>
   </energy>
  </scstep>
  <scstep>
   <time name="dav">    1.92    1.93</time>
   <time name="total">    2.18    2.19</time>
   <energy>
    <i name="e_fr_energy">    -84.88788806 </i>
    <i name="e_wo_entrp">    -84.85491225 </i>
    <i name="e_0_energy">    -84.87140015 </i>
   </energy>
  </scstep>
  <scstep>
   <time name="dav">    1.98    1.99</time>
   <time name="total">    2.23    2.24</time>
   <energy>
    <i name="e_fr_energy">    -84.87618012 </i>
    <i name="e_wo_entrp">    -84.84202553 </i>
    <i name="e_0_energy">    -84.85910283 </i>
   </energy>
  </scstep>
  <scstep>
   <time name="dav">    2.22    2.23</time>
   <time name="total">    2.47    2.48</time>
   <energy>
    <i name="e_fr_energy">    -84.85150643 </i>
    <i name="e_wo_entrp">    -84.81800557 </i>
    <i name="e_0_energy">    -84.83475600 </i>
   </energy>
  </scstep>
  <scstep>
   <time name="dav">    1.89    1.90</time>
   <time name="total">    2.14    2.15</time>
   <energy>
    <i name="e_fr_energy">    -84.84720538 </i>
    <i name="e_wo_entrp">    -84.81391835 </i>
    <i name="e_0_energy">    -84.83056186 </i>
   </energy>
  </scstep>
  <scstep>
   <time name="dav">    2.13    2.15</time>
   <time name="total">    2.38    2.40</time>
   <energy>
    <i name="e_fr_energy">    -84.85233753 </i>
    <i name="e_wo_entrp">    -84.81904959 </i>
    <i name="e_0_energy">    -84.83569356 </i>
   </energy>
  </scstep>
  <scstep>
   <time name="dav">    2.00    2.02</time>
   <time name="total">    2.26    2.27</time>
   <energy>
    <i name="e_fr_energy">    -84.86457816 </i>
    <i name="e_wo_entrp">    -84.83153144 </i>
    <i name="e_0_energy">    -84.84805480 </i>
   </energy>
  </scstep>
  <scstep>
   <time name="dav">    1.97    1.97</time>
   <time name="total">    2.22    2.22</time>
   <energy>
    <i name="e_fr_energy">    -84.86705650 </i>
    <i name="e_wo_entrp">    -84.83405099 </i>
    <i name="e_0_energy">    -84.85055374 </i>
   </energy>
  </scstep>
  <scstep>
   <time name="dav">    1.93    1.94</time>
   <time name="total">    2.19    2.20</time>
   <energy>
    <i name="e_fr_energy">    -84.87336889 </i>
    <i name="e_wo_entrp">    -84.84037321 </i>
    <i name="e_0_energy">    -84.85687105 </i>
   </energy>
  </scstep>
  <scstep>
   <time name="dav">    1.99    2.01</time>
   <time name="total">    2.25    2.27</time>
   <energy>
    <i name="e_fr_energy">    -84.85327767 </i>
    <i name="e_wo_entrp">    -84.81997708 </i>
    <i name="e_0_energy">    -84.83662737 </i>
   </energy>
  </scstep>
  <scstep>
   <time name="dav">    2.05    2.06</time>
   <time name="total">    2.30    2.31</time>
   <energy>
    <i name="e_fr_energy">    -84.84519739 </i>
    <i name="e_wo_entrp">    -84.81179921 </i>
    <i name="e_0_energy">    -84.82849830 </i>
   </energy>
  </scstep>
  <scstep>
   <time name="dav">    2.08    2.08</time>
   <time name="total">    2.33    2.34</time>
   <energy>
    <i name="e_fr_energy">    -84.83744856 </i>
    <i name="e_wo_entrp">    -84.80387294 </i>
    <i name="e_0_energy">    -84.82066075 </i>
   </energy>
  </scstep>
  <scstep>
   <time name="dav">    1.94    1.94</time>
   <time name="total">    2.19    2.20</time>
   <energy>
    <i name="e_fr_energy">    -84.83672436 </i>
    <i name="e_wo_entrp">    -84.80314800 </i>
    <i name="e_0_energy">    -84.81993618 </i>
   </energy>
  </scstep>
  <scstep>
   <time name="dav">    1.29    1.29</time>
   <time name="total">    1.54    1.55</time>
   <energy>
    <i name="e_fr_energy">    -84.83627458 </i>
    <i name="e_wo_entrp">    -84.80268897 </i>
    <i name="e_0_energy">    -84.81948177 </i>
   </energy>
  </scstep>
  <scstep>
   <time name="dav">    1.96    1.97</time>
   <time name="total">    2.21    2.23</time>
   <energy>
    <i name="e_fr_energy">    -84.83560745 </i>
    <i name="e_wo_entrp">    -84.80199119 </i>
    <i name="e_0_energy">    -84.81879932 </i>
   </energy>
  </scstep>
  <scstep>
   <time name="dav">    1.28    1.29</time>
   <time name="total">    1.53    1.54</time>
   <energy>
    <i name="e_fr_energy">    -84.83540623 </i>
    <i name="e_wo_entrp">    -84.80177836 </i>
    <i name="e_0_energy">    -84.81859230 </i>
   </energy>
  </scstep>
  <scstep>
   <time name="dav">    1.26    1.27</time>
   <time name="total">    1.51    1.52</time>
   <energy>
    <i name="e_fr_energy">    -84.83525624 </i>
    <i name="e_wo_entrp">    -84.80161387 </i>
    <i name="e_0_energy">    -84.81843505 </i>
   </energy>
  </scstep>
  <scstep>
   <time name="dav">    1.26    1.27</time>
   <time name="total">    1.51    1.52</time>
   <energy>
    <i name="e_fr_energy">    -84.83513588 </i>
    <i name="e_wo_entrp">    -84.80147935 </i>
    <i name="e_0_energy">    -84.81830761 </i>
   </energy>
  </scstep>
  <scstep>
   <time name="dav">    1.34    1.34</time>
   <time name="total">    1.46    1.46</time>
   <energy>
    <i name="alphaZ">    240.14076488 </i>
    <i name="ewald"> 134748.76617479 </i>
    <i name="hartreedc">-146475.48208859 </i>
    <i name="XCdc">     43.22746066 </i>
    <i name="pawpsdc">  13978.30939560 </i>
    <i name="pawaedc"> -13548.59284489 </i>
    <i name="eentropy">     -0.03367266 </i>
    <i name="bandstr">   -724.27759871 </i>
    <i name="atom">  11653.10734919 </i>
    <i name="e_fr_energy">    -84.83505973 </i>
    <i name="e_wo_entrp">    -84.80138707 </i>
    <i name="e_0_energy">    -84.81822340 </i>
   </energy>
  </scstep>
  <structure>
   <crystal>
    <varray name="basis" >
     <v>       5.63307200       0.00000000       0.21554300 </v>
     <v>       2.81241200       4.88076200       0.21554300 </v>
     <v>       0.00000000       0.00000000      36.85793800 </v>
    </varray>
    <i name="volume">   1013.36049145 </i>
    <varray name="rec_basis" >
     <v>       0.17752303      -0.10229302       0.00000000 </v>
     <v>       0.00000000       0.20488604       0.00000000 </v>
     <v>      -0.00103814      -0.00059996       0.02713120 </v>
    </varray>
   </crystal>
   <varray name="positions" >
    <v>       0.01562500       0.14062500       0.40625000 </v>
    <v>       0.01562500       0.64062500       0.40625000 </v>
    <v>       0.51562500       0.14062500       0.40625000 </v>
    <v>       0.51562500       0.64062500       0.40625000 </v>
    <v>       0.17187500       0.29687500       0.46875000 </v>
    <v>       0.17187500       0.79687500       0.46875000 </v>
    <v>       0.67187500       0.29687500       0.46875000 </v>
    <v>       0.67187500       0.79687500       0.46875000 </v>
    <v>       0.32972271       0.45064697       0.53078616 </v>
    <v>       0.32972247       0.95064729       0.53078630 </v>
    <v>       0.82972245       0.45064684       0.53078614 </v>
    <v>       0.82972210       0.95064762       0.53078619 </v>
    <v>       0.48348362       0.10971662       0.59462254 </v>
    <v>       0.48348421       0.60971705       0.59462230 </v>
    <v>       0.98348432       0.10971698       0.59462248 </v>
    <v>       0.98348379       0.60971647       0.59462274 </v>
   </varray>
  </structure>
  <varray name="forces" >
   <v>       0.01292914      -0.00187705      -0.60590778 </v>
   <v>       0.01293174      -0.00188570      -0.60557441 </v>
   <v>       0.01291959      -0.00188401      -0.60581323 </v>
   <v>       0.01291502      -0.00185916      -0.60595790 </v>
   <v>      -0.10688311       0.26241709       0.30332756 </v>
   <v>      -0.10684875       0.26252679       0.30338115 </v>
   <v>      -0.10687501       0.26245706       0.30330525 </v>
   <v>      -0.10691779       0.26252541       0.30337884 </v>
   <v>       0.03165569      -0.26790420       0.20961026 </v>
   <v>       0.03167439      -0.26782917       0.20943481 </v>
   <v>       0.03175718      -0.26779713       0.20957008 </v>
   <v>       0.03170079      -0.26801027       0.20962785 </v>
   <v>       0.06224559       0.00735667       0.09287274 </v>
   <v>       0.06226924       0.00720156       0.09292474 </v>
   <v>       0.06228258       0.00718843       0.09293946 </v>
   <v>       0.06224372       0.00737368       0.09288060 </v>
  </varray>
  <energy>
   <i name="e_fr_energy">    -84.83505973 </i>
   <i name="e_wo_entrp">    -84.80138707 </i>
   <i name="e_0_energy">    -84.81822340 </i>
  </energy>
  <time name="totalsc">   51.85   52.25</time>
 </calculation>
 <calculation>
  <scstep>
   <time name="dav">    1.81    1.82</time>
   <time name="total">    2.06    2.08</time>
   <energy>
    <i name="alphaZ">    240.14076488 </i>
    <i name="ewald"> 134714.57294010 </i>
    <i name="hartreedc">-146441.46643654 </i>
    <i name="XCdc">     43.20245519 </i>
    <i name="pawpsdc">  13978.47774848 </i>
    <i name="pawaedc"> -13548.76112132 </i>
    <i name="eentropy">     -0.03364726 </i>
    <i name="bandstr">   -724.07501313 </i>
    <i name="atom">  11653.10734919 </i>
    <i name="e_fr_energy">    -84.83496042 </i>
    <i name="e_wo_entrp">    -84.80131316 </i>
    <i name="e_0_energy">    -84.81813679 </i>
   </energy>
  </scstep>
  <scstep>
   <time name="dav">    1.90    1.91</time>
   <time name="total">    2.14    2.16</time>
   <energy>
    <i name="e_fr_energy">    -84.83980608 </i>
    <i name="e_wo_entrp">    -84.80612185 </i>
    <i name="e_0_energy">    -84.82296397 </i>
   </energy>
  </scstep>
  <scstep>
   <time name="dav">    1.97    1.98</time>
   <time name="total">    2.21    2.23</time>
   <energy>
    <i name="e_fr_energy">    -84.85272017 </i>
    <i name="e_wo_entrp">    -84.81928478 </i>
    <i name="e_0_energy">    -84.83600247 </i>
   </energy>
  </scstep>
  <scstep>
   <time name="dav">    2.02    2.03</time>
   <time name="total">    2.27    2.28</time>
   <energy>
    <i name="e_fr_energy">    -84.84170591 </i>
    <i name="e_wo_entrp">    -84.80810752 </i>
    <i name="e_0_energy">    -84.82490672 </i>
   </energy>
  </scstep>
  <scstep>
   <time name="dav">    1.81    1.82</time>
   <time name="total">    2.06    2.07</time>
   <energy>
    <i name="e_fr_energy">    -84.83842959 </i>
    <i name="e_wo_entrp">    -84.80482396 </i>
    <i name="e_0_energy">    -84.82162678 </i>
   </energy>
  </scstep>
  <scstep>
   <time name="dav">    1.77    1.77</time>
   <time name="total">    2.01    2.02</time>
   <energy>
    <i name="e_fr_energy">    -84.83783469 </i>
    <i name="e_wo_entrp">    -84.80411938 </i>
    <i name="e_0_energy">    -84.82097703 </i>
   </energy>
  </scstep>
  <scstep>
   <time name="dav">    1.77    1.77</time>
   <time name="total">    2.02    2.02</time>
   <energy>
    <i name="e_fr_energy">    -84.83533242 </i>
    <i name="e_wo_entrp">    -84.80165744 </i>
    <i name="e_0_energy">    -84.81849493 </i>
   </energy>
  </scstep>
  <scstep>
   <time name="dav">    1.67    1.68</time>
   <time name="total">    1.78    1.80</time>
   <energy>
    <i name="alphaZ">    240.14076488 </i>
    <i name="ewald"> 134714.57294010 </i>
    <i name="hartreedc">-146441.25849567 </i>
    <i name="XCdc">     43.20442523 </i>
    <i name="pawpsdc">  13974.79342826 </i>
    <i name="pawaedc"> -13545.05016277 </i>
    <i name="eentropy">     -0.03366068 </i>
    <i name="bandstr">   -724.31190170 </i>
    <i name="atom">  11653.10734919 </i>
    <i name="e_fr_energy">    -84.83531317 </i>
    <i name="e_wo_entrp">    -84.80165249 </i>
    <i name="e_0_energy">    -84.81848283 </i>
   </energy>
  </scstep>
  <structure>
   <crystal>
    <varray name="basis" >
     <v>       5.63307200       0.00000000       0.21554300 </v>
     <v>       2.81241200       4.88076200       0.21554300 </v>
     <v>       0.00000000       0.00000000      36.85793800 </v>
    </varray>
    <i name="volume">   1013.36049145 </i>
    <varray name="rec_basis" >
     <v>       0.17752303      -0.10229302       0.00000000 </v>
     <v>       0.00000000       0.20488604       0.00000000 </v>
     <v>      -0.00103814      -0.00059996       0.02713120 </v>
    </varray>
   </crystal>
   <varray name="positions" >
    <v>       0.01562500       0.14062500       0.40625000 </v>
    <v>       0.01562500       0.64062500       0.40625000 </v>
    <v>       0.51562500       0.14062500       0.40625000 </v>
    <v>       0.51562500       0.64062500       0.40625000 </v>
    <v>       0.17187500       0.29687500       0.46875000 </v>
    <v>       0.17187500       0.79687500       0.46875000 </v>
    <v>       0.67187500       0.29687500       0.46875000 </v>
    <v>       0.67187500       0.79687500       0.46875000 </v>
    <v>       0.32989878       0.45037389       0.53073505 </v>
    <v>       0.32989852       0.95037424       0.53073520 </v>
    <v>       0.82989849       0.45037374       0.53073502 </v>
    <v>       0.82989811       0.95037461       0.53073508 </v>
    <v>       0.48338539       0.10975426       0.59471870 </v>
    <v>       0.48338604       0.60975475       0.59471843 </v>
    <v>       0.98338616       0.10975467       0.59471863 </v>
    <v>       0.98338558       0.60975410       0.59471892 </v>
   </varray>
  </structure>
  <varray name="forces" >
   <v>       0.01302771      -0.00209774      -0.60729157 </v>
   <v>       0.01303066      -0.00210448      -0.60721286 </v>
   <v>       0.01303583      -0.00209915      -0.60719358 </v>
   <v>       0.01303117      -0.00211015      -0.60723788 </v>
   <v>      -0.10628883       0.25986275       0.29324816 </v>
   <v>      -0.10628125       0.25988439       0.29326817 </v>
   <v>      -0.10627898       0.25987001       0.29324092 </v>
   <v>      -0.10628747       0.25987313       0.29327422 </v>
   <v>       0.04120523      -0.26905472       0.25541537 </v>
   <v>       0.04120674      -0.26908992       0.25529709 </v>
   <v>       0.04126724      -0.26904800       0.25541887 </v>
   <v>       0.04124138      -0.26913181       0.25540393 </v>
   <v>       0.05207733       0.01134720       0.05862257 </v>
   <v>       0.05200955       0.01124577       0.05866645 </v>
   <v>       0.05196788       0.01127581       0.05857983 </v>
   <v>       0.05203581       0.01137691       0.05850032 </v>
  </varray>
  <energy>
   <i name="e_fr_energy">    -84.83531317 </i>
   <i name="e_wo_entrp">    -84.80165249 </i>
   <i name="e_0_energy">    -84.81848283 </i>
  </energy>
  <time name="totalsc">   17.66   17.78</time>
 </calculation>
 <calculation>
  <scstep>
   <time name="dav">    1.81    1.82</time>
   <time name="total">    2.05    2.06</time>
   <energy>
    <i name="alphaZ">    240.14076488 </i>
    <i name="ewald"> 134565.64685765 </i>
    <i name="hartreedc">-146292.86684170 </i>
    <i name="XCdc">     43.12674070 </i>
    <i name="pawpsdc">  13974.49930899 </i>
    <i name="pawaedc"> -13544.75399932 </i>
    <i name="eentropy">     -0.03402961 </i>
    <i name="bandstr">   -723.71457313 </i>
    <i name="atom">  11653.10734919 </i>
    <i name="e_fr_energy">    -84.84842235 </i>
    <i name="e_wo_entrp">    -84.81439273 </i>
    <i name="e_0_energy">    -84.83140754 </i>
   </energy>
  </scstep>
  <scstep>
   <time name="dav">    1.93    1.95</time>
   <time name="total">    2.17    2.19</time>
   <energy>
    <i name="e_fr_energy">    -84.88279013 </i>
    <i name="e_wo_entrp">    -84.84962733 </i>
    <i name="e_0_energy">    -84.86620873 </i>
   </energy>
  </scstep>
  <scstep>
   <time name="dav">    2.08    2.09</time>
   <time name="total">    2.32    2.33</time>
   <energy>
    <i name="e_fr_energy">    -84.87463756 </i>
    <i name="e_wo_entrp">    -84.84074758 </i>
    <i name="e_0_energy">    -84.85769257 </i>
   </energy>
  </scstep>
  <scstep>
   <time name="dav">    2.08    2.10</time>
   <time name="total">    2.33    2.35</time>
   <energy>
    <i name="e_fr_energy">    -84.86236571 </i>
    <i name="e_wo_entrp">    -84.82911631 </i>
    <i name="e_0_energy">    -84.84574101 </i>
   </energy>
  </scstep>
  <scstep>
   <time name="dav">    1.97    1.98</time>
   <time name="total">    2.23    2.24</time>
   <energy>
    <i name="e_fr_energy">    -84.86080203 </i>
    <i name="e_wo_entrp">    -84.82729430 </i>
    <i name="e_0_energy">    -84.84404817 </i>
   </energy>
  </scstep>
  <scstep>
   <time name="dav">    2.23    2.24</time>
   <time name="total">    2.49    2.50</time>
   <energy>
    <i name="e_fr_energy">    -84.86515333 </i>
    <i name="e_wo_entrp">    -84.83116324 </i>
    <i name="e_0_energy">    -84.84815829 </i>
   </energy>
  </scstep>
  <scstep>
   <time name="dav">    2.25    2.26</time>
   <time name="total">    2.51    2.52</time>
   <energy>
    <i name="e_fr_energy">    -84.85804327 </i>
    <i name="e_wo_entrp">    -84.82400618 </i>
    <i name="e_0_energy">    -84.84102473 </i>
   </energy>
  </scstep>
  <scstep>
   <time name="dav">    1.92    1.94</time>
   <time name="total">    2.17    2.18</time>
   <energy>
    <i name="e_fr_energy">    -84.85741032 </i>
    <i name="e_wo_entrp">    -84.82329703 </i>
    <i name="e_0_energy">    -84.84035368 </i>
   </energy>
  </scstep>
  <scstep>
   <time name="dav">    1.41    1.42</time>
   <time name="total">    1.66    1.67</time>
   <energy>
    <i name="e_fr_energy">    -84.85753802 </i>
    <i name="e_wo_entrp">    -84.82342724 </i>
    <i name="e_0_energy">    -84.84048263 </i>
   </energy>
  </scstep>
  <scstep>
   <time name="dav">    1.32    1.33</time>
   <time name="total">    1.56    1.57</time>
   <energy>
    <i name="e_fr_energy">    -84.85742687 </i>
    <i name="e_wo_entrp">    -84.82331980 </i>
    <i name="e_0_energy">    -84.84037333 </i>
   </energy>
  </scstep>
  <scstep>
   <time name="dav">    1.30    1.31</time>
   <time name="total">    1.41    1.42</time>
   <energy>
    <i name="alphaZ">    240.14076488 </i>
    <i name="ewald"> 134565.64685765 </i>
    <i name="hartreedc">-146293.09460439 </i>
    <i name="XCdc">     43.12872150 </i>
    <i name="pawpsdc">  13961.47067918 </i>
    <i name="pawaedc"> -13531.62591423 </i>
    <i name="eentropy">     -0.03410543 </i>
    <i name="bandstr">   -723.59718823 </i>
    <i name="atom">  11653.10734919 </i>
    <i name="e_fr_energy">    -84.85743987 </i>
    <i name="e_wo_entrp">    -84.82333445 </i>
    <i name="e_0_energy">    -84.84038716 </i>
   </energy>
  </scstep>
  <structure>
   <crystal>
    <varray name="basis" >
     <v>       5.63307200       0.00000000       0.21554300 </v>
     <v>       2.81241200       4.88076200       0.21554300 </v>
     <v>       0.00000000       0.00000000      36.85793800 </v>
    </varray>
    <i name="volume">   1013.36049145 </i>
    <varray name="rec_basis" >
     <v>       0.17752303      -0.10229302       0.00000000 </v>
     <v>       0.00000000       0.20488604       0.00000000 </v>
     <v>      -0.00103814      -0.00059996       0.02713120 </v>
    </varray>
   </crystal>
   <varray name="positions" >
    <v>       0.01562500       0.14062500       0.40625000 </v>
    <v>       0.01562500       0.64062500       0.40625000 </v>
    <v>       0.51562500       0.14062500       0.40625000 </v>
    <v>       0.51562500       0.64062500       0.40625000 </v>
    <v>       0.17187500       0.29687500       0.46875000 </v>
    <v>       0.17187500       0.79687500       0.46875000 </v>
    <v>       0.67187500       0.29687500       0.46875000 </v>
    <v>       0.67187500       0.79687500       0.46875000 </v>
    <v>       0.33195450       0.44713159       0.53098444 </v>
    <v>       0.33195437       0.94713165       0.53098446 </v>
    <v>       0.83195466       0.44713149       0.53098441 </v>
    <v>       0.83195440       0.94713167       0.53098446 </v>
    <v>       0.48359540       0.10994117       0.59497872 </v>
    <v>       0.48359609       0.60994072       0.59497847 </v>
    <v>       0.98359572       0.10994093       0.59497860 </v>
    <v>       0.98359511       0.60994127       0.59497882 </v>
   </varray>
  </structure>
  <varray name="forces" >
   <v>       0.03556587      -0.03249843      -0.59661550 </v>
   <v>       0.03555896      -0.03247231      -0.59628426 </v>
   <v>       0.03557283      -0.03249711      -0.59663254 </v>
   <v>       0.03555536      -0.03247608      -0.59625828 </v>
   <v>      -0.08122337       0.19791428       0.36544239 </v>
   <v>      -0.08120335       0.19790346       0.36533612 </v>
   <v>      -0.08122420       0.19791043       0.36544478 </v>
   <v>      -0.08120319       0.19790711       0.36534296 </v>
   <v>       0.00938413      -0.14263666       0.12862785 </v>
   <v>       0.00939486      -0.14272297       0.12856431 </v>
   <v>       0.00940001      -0.14262251       0.12864091 </v>
   <v>       0.00937857      -0.14273474       0.12858544 </v>
   <v>       0.03626326      -0.02273280       0.10230453 </v>
   <v>       0.03625591      -0.02276280       0.10261366 </v>
   <v>       0.03626384      -0.02274634       0.10234192 </v>
   <v>       0.03626051      -0.02273253       0.10254570 </v>
  </varray>
  <energy>
   <i name="e_fr_energy">    -84.85743987 </i>
   <i name="e_wo_entrp">    -84.82333445 </i>
   <i name="e_0_energy">    -84.84038716 </i>
  </energy>
  <time name="totalsc">   24.00   24.17</time>
 </calculation>
 <calculation>
  <scstep>
   <time name="dav">    1.82    1.83</time>
   <time name="total">    2.07    2.08</time>
   <energy>
    <i name="alphaZ">    240.14076488 </i>
    <i name="ewald"> 134332.35719739 </i>
    <i name="hartreedc">-146060.55143931 </i>
    <i name="XCdc">     43.00961826 </i>
    <i name="pawpsdc">  13961.42260858 </i>
    <i name="pawaedc"> -13531.57734481 </i>
    <i name="eentropy">     -0.03319266 </i>
    <i name="bandstr">   -722.70667668 </i>
    <i name="atom">  11653.10734919 </i>
    <i name="e_fr_energy">    -84.83111516 </i>
    <i name="e_wo_entrp">    -84.79792250 </i>
    <i name="e_0_energy">    -84.81451883 </i>
   </energy>
  </scstep>
  <scstep>
   <time name="dav">    1.86    1.87</time>
   <time name="total">    2.12    2.13</time>
   <energy>
    <i name="e_fr_energy">    -84.87894366 </i>
    <i name="e_wo_entrp">    -84.84449432 </i>
    <i name="e_0_energy">    -84.86171899 </i>
   </energy>
  </scstep>
  <scstep>
   <time name="dav">    2.14    2.16</time>
   <time name="total">    2.39    2.41</time>
   <energy>
    <i name="e_fr_energy">    -84.92451496 </i>
    <i name="e_wo_entrp">    -84.89207074 </i>
    <i name="e_0_energy">    -84.90829285 </i>
   </energy>
  </scstep>
  <scstep>
   <time name="dav">    2.06    2.08</time>
   <time name="total">    2.31    2.33</time>
   <energy>
    <i name="e_fr_energy">    -84.86646954 </i>
    <i name="e_wo_entrp">    -84.83670785 </i>
    <i name="e_0_energy">    -84.85158869 </i>
   </energy>
  </scstep>
  <scstep>
   <time name="dav">    2.01    2.03</time>
   <time name="total">    2.27    2.28</time>
   <energy>
    <i name="e_fr_energy">    -84.86207774 </i>
    <i name="e_wo_entrp">    -84.83099313 </i>
    <i name="e_0_energy">    -84.84653544 </i>
   </energy>
  </scstep>
  <scstep>
   <time name="dav">    2.00    2.02</time>
   <time name="total">    2.25    2.27</time>
   <energy>
    <i name="e_fr_energy">    -84.85483077 </i>
    <i name="e_wo_entrp">    -84.82149723 </i>
    <i name="e_0_energy">    -84.83816400 </i>
   </energy>
  </scstep>
  <scstep>
   <time name="dav">    1.93    1.95</time>
   <time name="total">    2.18    2.20</time>
   <energy>
    <i name="e_fr_energy">    -84.86104899 </i>
    <i name="e_wo_entrp">    -84.82701099 </i>
    <i name="e_0_energy">    -84.84402999 </i>
   </energy>
  </scstep>
  <scstep>
   <time name="dav">    2.31    2.32</time>
   <time name="total">    2.56    2.58</time>
   <energy>
    <i name="e_fr_energy">    -84.85688999 </i>
    <i name="e_wo_entrp">    -84.82278270 </i>
    <i name="e_0_energy">    -84.83983635 </i>
   </energy>
  </scstep>
  <scstep>
   <time name="dav">    2.01    2.03</time>
   <time name="total">    2.26    2.28</time>
   <energy>
    <i name="e_fr_energy">    -84.85343515 </i>
    <i name="e_wo_entrp">    -84.81940861 </i>
    <i name="e_0_energy">    -84.83642188 </i>
   </energy>
  </scstep>
  <scstep>
   <time name="dav">    1.42    1.43</time>
   <time name="total">    1.68    1.69</time>
   <energy>
    <i name="e_fr_energy">    -84.85313544 </i>
    <i name="e_wo_entrp">    -84.81914244 </i>
    <i name="e_0_energy">    -84.83613894 </i>
   </energy>
  </scstep>
  <scstep>
   <time name="dav">    1.31    1.32</time>
   <time name="total">    1.43    1.44</time>
   <energy>
    <i name="alphaZ">    240.14076488 </i>
    <i name="ewald"> 134332.35719739 </i>
    <i name="hartreedc">-146061.03935162 </i>
    <i name="XCdc">     43.01402689 </i>
    <i name="pawpsdc">  13942.37949963 </i>
    <i name="pawaedc"> -13512.38844766 </i>
    <i name="eentropy">     -0.03399635 </i>
    <i name="bandstr">   -722.39018426 </i>
    <i name="atom">  11653.10734919 </i>
    <i name="e_fr_energy">    -84.85314191 </i>
    <i name="e_wo_entrp">    -84.81914556 </i>
    <i name="e_0_energy">    -84.83614374 </i>
   </energy>
  </scstep>
  <structure>
   <crystal>
    <varray name="basis" >
     <v>       5.63307200       0.00000000       0.21554300 </v>
     <v>       2.81241200       4.88076200       0.21554300 </v>
     <v>       0.00000000       0.00000000      36.85793800 </v>
    </varray>
    <i name="volume">   1013.36049145 </i>
    <varray name="rec_basis" >
     <v>       0.17752303      -0.10229302       0.00000000 </v>
     <v>       0.00000000       0.20488604       0.00000000 </v>
     <v>      -0.00103814      -0.00059996       0.02713120 </v>
    </varray>
   </crystal>
   <varray name="positions" >
    <v>       0.01562500       0.14062500       0.40625000 </v>
    <v>       0.01562500       0.64062500       0.40625000 </v>
    <v>       0.51562500       0.14062500       0.40625000 </v>
    <v>       0.51562500       0.64062500       0.40625000 </v>
    <v>       0.17187500       0.29687500       0.46875000 </v>
    <v>       0.17187500       0.79687500       0.46875000 </v>
    <v>       0.67187500       0.29687500       0.46875000 </v>
    <v>       0.67187500       0.79687500       0.46875000 </v>
    <v>       0.33517797       0.44204749       0.53137550 </v>
    <v>       0.33517807       0.94204709       0.53137532 </v>
    <v>       0.83517885       0.44204745       0.53137547 </v>
    <v>       0.83517878       0.94204657       0.53137551 </v>
    <v>       0.48392470       0.11023425       0.59538646 </v>
    <v>       0.48392546       0.61023234       0.59538623 </v>
    <v>       0.98392431       0.11023300       0.59538623 </v>
    <v>       0.98392367       0.61023478       0.59538636 </v>
   </varray>
  </structure>
  <varray name="forces" >
   <v>       0.04985178      -0.07205360      -0.54509132 </v>
   <v>       0.04985323      -0.07240272      -0.54545825 </v>
   <v>       0.04984253      -0.07205793      -0.54507741 </v>
   <v>       0.04986218      -0.07239946      -0.54546683 </v>
   <v>      -0.06344432       0.11475831       0.50741009 </v>
   <v>      -0.06347689       0.11469984       0.50742929 </v>
   <v>      -0.06344656       0.11475490       0.50744770 </v>
   <v>      -0.06346872       0.11469883       0.50742839 </v>
   <v>      -0.02964922       0.04527508      -0.14789625 </v>
   <v>      -0.02965578       0.04557781      -0.14764272 </v>
   <v>      -0.02971850       0.04531994      -0.14786724 </v>
   <v>      -0.02969908       0.04565537      -0.14779923 </v>
   <v>       0.04320813      -0.08788279       0.18564088 </v>
   <v>       0.04327941      -0.08798915       0.18562868 </v>
   <v>       0.04336026      -0.08777771       0.18571341 </v>
   <v>       0.04330155      -0.08817672       0.18560081 </v>
  </varray>
  <energy>
   <i name="e_fr_energy">    -84.85314191 </i>
   <i name="e_wo_entrp">    -84.81914556 </i>
   <i name="e_0_energy">    -84.83614374 </i>
  </energy>
  <time name="totalsc">   24.62   24.89</time>
 </calculation>
 <calculation>
  <scstep>
   <time name="dav">    1.81    1.82</time>
   <time name="total">    2.06    2.07</time>
   <energy>
    <i name="alphaZ">    240.14076488 </i>
    <i name="ewald"> 134084.12863179 </i>
    <i name="hartreedc">-145813.35566886 </i>
    <i name="XCdc">     42.85710359 </i>
    <i name="pawpsdc">  13942.95116811 </i>
    <i name="pawaedc"> -13512.96131090 </i>
    <i name="eentropy">     -0.03207852 </i>
    <i name="bandstr">   -721.67439503 </i>
    <i name="atom">  11653.10734919 </i>
    <i name="e_fr_energy">    -84.83843574 </i>
    <i name="e_wo_entrp">    -84.80635723 </i>
    <i name="e_0_energy">    -84.82239648 </i>
   </energy>
  </scstep>
  <scstep>
   <time name="dav">    1.92    1.92</time>
   <time name="total">    2.16    2.17</time>
   <energy>
    <i name="e_fr_energy">    -84.86934441 </i>
    <i name="e_wo_entrp">    -84.83474934 </i>
    <i name="e_0_energy">    -84.85204687 </i>
   </energy>
  </scstep>
  <scstep>
   <time name="dav">    2.07    2.09</time>
   <time name="total">    2.33    2.34</time>
   <energy>
    <i name="e_fr_energy">    -84.91298615 </i>
    <i name="e_wo_entrp">    -84.88052038 </i>
    <i name="e_0_energy">    -84.89675327 </i>
   </energy>
  </scstep>
  <scstep>
   <time name="dav">    2.22    2.22</time>
   <time name="total">    2.46    2.47</time>
   <energy>
    <i name="e_fr_energy">    -84.89605861 </i>
    <i name="e_wo_entrp">    -84.86328841 </i>
    <i name="e_0_energy">    -84.87967351 </i>
   </energy>
  </scstep>
  <scstep>
   <time name="dav">    2.01    2.01</time>
   <time name="total">    2.25    2.25</time>
   <energy>
    <i name="e_fr_energy">    -84.86391509 </i>
    <i name="e_wo_entrp">    -84.83090357 </i>
    <i name="e_0_energy">    -84.84740933 </i>
   </energy>
  </scstep>
  <scstep>
   <time name="dav">    2.20    2.20</time>
   <time name="total">    2.44    2.45</time>
   <energy>
    <i name="e_fr_energy">    -84.89118635 </i>
    <i name="e_wo_entrp">    -84.85791873 </i>
    <i name="e_0_energy">    -84.87455254 </i>
   </energy>
  </scstep>
  <scstep>
   <time name="dav">    2.57    2.58</time>
   <time name="total">    2.83    2.83</time>
   <energy>
    <i name="e_fr_energy">    -84.85693820 </i>
    <i name="e_wo_entrp">    -84.82354754 </i>
    <i name="e_0_energy">    -84.84024287 </i>
   </energy>
  </scstep>
  <scstep>
   <time name="dav">    2.00    2.00</time>
   <time name="total">    2.25    2.25</time>
   <energy>
    <i name="e_fr_energy">    -84.85423823 </i>
    <i name="e_wo_entrp">    -84.82094870 </i>
    <i name="e_0_energy">    -84.83759347 </i>
   </energy>
  </scstep>
  <scstep>
   <time name="dav">    1.73    1.73</time>
   <time name="total">    1.98    1.98</time>
   <energy>
    <i name="e_fr_energy">    -84.85349823 </i>
    <i name="e_wo_entrp">    -84.82028211 </i>
    <i name="e_0_energy">    -84.83689017 </i>
   </energy>
  </scstep>
  <scstep>
   <time name="dav">    1.35    1.35</time>
   <time name="total">    1.61    1.61</time>
   <energy>
    <i name="e_fr_energy">    -84.85331005 </i>
    <i name="e_wo_entrp">    -84.82019077 </i>
    <i name="e_0_energy">    -84.83675041 </i>
   </energy>
  </scstep>
  <scstep>
   <time name="dav">    1.32    1.32</time>
   <time name="total">    1.44    1.44</time>
   <energy>
    <i name="alphaZ">    240.14076488 </i>
    <i name="ewald"> 134084.12863179 </i>
    <i name="hartreedc">-145813.28863783 </i>
    <i name="XCdc">     42.86333189 </i>
    <i name="pawpsdc">  13918.46293666 </i>
    <i name="pawaedc"> -13488.29497905 </i>
    <i name="eentropy">     -0.03309404 </i>
    <i name="bandstr">   -721.93962232 </i>
    <i name="atom">  11653.10734919 </i>
    <i name="e_fr_energy">    -84.85331882 </i>
    <i name="e_wo_entrp">    -84.82022478 </i>
    <i name="e_0_energy">    -84.83677180 </i>
   </energy>
  </scstep>
  <structure>
   <crystal>
    <varray name="basis" >
     <v>       5.63307200       0.00000000       0.21554300 </v>
     <v>       2.81241200       4.88076200       0.21554300 </v>
     <v>       0.00000000       0.00000000      36.85793800 </v>
    </varray>
    <i name="volume">   1013.36049145 </i>
    <varray name="rec_basis" >
     <v>       0.17752303      -0.10229302       0.00000000 </v>
     <v>       0.00000000       0.20488604       0.00000000 </v>
     <v>      -0.00103814      -0.00059996       0.02713120 </v>
    </varray>
   </crystal>
   <varray name="positions" >
    <v>       0.01562500       0.14062500       0.40625000 </v>
    <v>       0.01562500       0.64062500       0.40625000 </v>
    <v>       0.51562500       0.14062500       0.40625000 </v>
    <v>       0.51562500       0.64062500       0.40625000 </v>
    <v>       0.17187500       0.29687500       0.46875000 </v>
    <v>       0.17187500       0.79687500       0.46875000 </v>
    <v>       0.67187500       0.29687500       0.46875000 </v>
    <v>       0.67187500       0.79687500       0.46875000 </v>
    <v>       0.33653903       0.43949083       0.53135871 </v>
    <v>       0.33653718       0.93949417       0.53135884 </v>
    <v>       0.83653925       0.43949143       0.53135873 </v>
    <v>       0.83653731       0.93949433       0.53135886 </v>
    <v>       0.48520828       0.10925004       0.59596641 </v>
    <v>       0.48521060       0.60924581       0.59596617 </v>
    <v>       0.98520851       0.10924956       0.59596624 </v>
    <v>       0.98520980       0.60924693       0.59596613 </v>
   </varray>
  </structure>
  <varray name="forces" >
   <v>       0.04690215      -0.04943188      -0.56734540 </v>
   <v>       0.04688617      -0.04939473      -0.56656124 </v>
   <v>       0.04690636      -0.04941648      -0.56729296 </v>
   <v>       0.04687305      -0.04940491      -0.56660063 </v>
   <v>      -0.06743153       0.12151773       0.47895909 </v>
   <v>      -0.06739217       0.12130838       0.47874402 </v>
   <v>      -0.06746145       0.12151344       0.47900965 </v>
   <v>      -0.06736506       0.12131186       0.47868913 </v>
   <v>      -0.07869839       0.08555574      -0.02956010 </v>
   <v>      -0.07871775       0.08498966      -0.02972383 </v>
   <v>      -0.07878068       0.08553889      -0.02954473 </v>
   <v>      -0.07870419       0.08499649      -0.02976389 </v>
   <v>       0.09920272      -0.15737262       0.11758054 </v>
   <v>       0.09925796      -0.15715558       0.11790396 </v>
   <v>       0.09923524      -0.15735765       0.11756249 </v>
   <v>       0.09928755      -0.15719836       0.11794391 </v>
  </varray>
  <energy>
   <i name="e_fr_energy">    -84.85331882 </i>
   <i name="e_wo_entrp">    -84.82022478 </i>
   <i name="e_0_energy">    -84.83677180 </i>
  </energy>
  <time name="totalsc">   24.90   25.03</time>
 </calculation>
 <calculation>
  <scstep>
   <time name="dav">    1.84    1.85</time>
   <time name="total">    2.08    2.10</time>
   <energy>
    <i name="alphaZ">    240.14076488 </i>
    <i name="ewald"> 133645.15871888 </i>
    <i name="hartreedc">-145375.73299298 </i>
    <i name="XCdc">     42.59895985 </i>
    <i name="pawpsdc">  13917.72645196 </i>
    <i name="pawaedc"> -13487.55522076 </i>
    <i name="eentropy">     -0.02835568 </i>
    <i name="bandstr">   -720.19362392 </i>
    <i name="atom">  11653.10734919 </i>
    <i name="e_fr_energy">    -84.77794858 </i>
    <i name="e_wo_entrp">    -84.74959290 </i>
    <i name="e_0_energy">    -84.76377074 </i>
   </energy>
  </scstep>
  <scstep>
   <time name="dav">    1.91    1.91</time>
   <time name="total">    2.16    2.17</time>
   <energy>
    <i name="e_fr_energy">    -84.93393691 </i>
    <i name="e_wo_entrp">    -84.89682555 </i>
    <i name="e_0_energy">    -84.91538123 </i>
   </energy>
  </scstep>
  <scstep>
   <time name="dav">    1.96    1.96</time>
   <time name="total">    2.20    2.21</time>
   <energy>
    <i name="e_fr_energy">    -84.86481887 </i>
    <i name="e_wo_entrp">    -84.83043251 </i>
    <i name="e_0_energy">    -84.84762569 </i>
   </energy>
  </scstep>
  <scstep>
   <time name="dav">    2.01    2.02</time>
   <time name="total">    2.27    2.27</time>
   <energy>
    <i name="e_fr_energy">    -84.89631942 </i>
    <i name="e_wo_entrp">    -84.86549689 </i>
    <i name="e_0_energy">    -84.88090815 </i>
   </energy>
  </scstep>
  <scstep>
   <time name="dav">    2.00    2.00</time>
   <time name="total">    2.26    2.26</time>
   <energy>
    <i name="e_fr_energy">    -84.83998938 </i>
    <i name="e_wo_entrp">    -84.80971760 </i>
    <i name="e_0_energy">    -84.82485349 </i>
   </energy>
  </scstep>
  <scstep>
   <time name="dav">    1.99    2.00</time>
   <time name="total">    2.24    2.25</time>
   <energy>
    <i name="e_fr_energy">    -84.88572995 </i>
    <i name="e_wo_entrp">    -84.85385809 </i>
    <i name="e_0_energy">    -84.86979402 </i>
   </energy>
  </scstep>
  <scstep>
   <time name="dav">    2.12    2.13</time>
   <time name="total">    2.36    2.37</time>
   <energy>
    <i name="e_fr_energy">    -84.83617469 </i>
    <i name="e_wo_entrp">    -84.80299862 </i>
    <i name="e_0_energy">    -84.81958666 </i>
   </energy>
  </scstep>
  <scstep>
   <time name="dav">    1.97    1.98</time>
   <time name="total">    2.21    2.22</time>
   <energy>
    <i name="e_fr_energy">    -84.83767119 </i>
    <i name="e_wo_entrp">    -84.80508522 </i>
    <i name="e_0_energy">    -84.82137821 </i>
   </energy>
  </scstep>
  <scstep>
   <time name="dav">    2.04    2.05</time>
   <time name="total">    2.29    2.31</time>
   <energy>
    <i name="e_fr_energy">    -84.82548910 </i>
    <i name="e_wo_entrp">    -84.79412104 </i>
    <i name="e_0_energy">    -84.80980507 </i>
   </energy>
  </scstep>
  <scstep>
   <time name="dav">    2.03    2.03</time>
   <time name="total">    2.27    2.28</time>
   <energy>
    <i name="e_fr_energy">    -84.82510299 </i>
    <i name="e_wo_entrp">    -84.79383329 </i>
    <i name="e_0_energy">    -84.80946814 </i>
   </energy>
  </scstep>
  <scstep>
   <time name="dav">    1.31    1.31</time>
   <time name="total">    1.56    1.57</time>
   <energy>
    <i name="e_fr_energy">    -84.82531436 </i>
    <i name="e_wo_entrp">    -84.79396868 </i>
    <i name="e_0_energy">    -84.80964152 </i>
   </energy>
  </scstep>
  <scstep>
   <time name="dav">    1.22    1.23</time>
   <time name="total">    1.47    1.48</time>
   <energy>
    <i name="e_fr_energy">    -84.82509672 </i>
    <i name="e_wo_entrp">    -84.79377197 </i>
    <i name="e_0_energy">    -84.80943434 </i>
   </energy>
  </scstep>
  <scstep>
   <time name="dav">    1.69    1.71</time>
   <time name="total">    1.95    1.96</time>
   <energy>
    <i name="e_fr_energy">    -84.82438383 </i>
    <i name="e_wo_entrp">    -84.79320757 </i>
    <i name="e_0_energy">    -84.80879570 </i>
   </energy>
  </scstep>
  <scstep>
   <time name="dav">    1.29    1.30</time>
   <time name="total">    1.55    1.56</time>
   <energy>
    <i name="e_fr_energy">    -84.82421804 </i>
    <i name="e_wo_entrp">    -84.79307328 </i>
    <i name="e_0_energy">    -84.80864566 </i>
   </energy>
  </scstep>
  <scstep>
   <time name="dav">    1.30    1.30</time>
   <time name="total">    1.55    1.56</time>
   <energy>
    <i name="e_fr_energy">    -84.82405343 </i>
    <i name="e_wo_entrp">    -84.79292707 </i>
    <i name="e_0_energy">    -84.80849025 </i>
   </energy>
  </scstep>
  <scstep>
   <time name="dav">    1.22    1.22</time>
   <time name="total">    1.33    1.34</time>
   <energy>
    <i name="alphaZ">    240.14076488 </i>
    <i name="ewald"> 133645.15871888 </i>
    <i name="hartreedc">-145375.14257274 </i>
    <i name="XCdc">     42.61236972 </i>
    <i name="pawpsdc">  13875.46767485 </i>
    <i name="pawaedc"> -13444.99595596 </i>
    <i name="eentropy">     -0.03113175 </i>
    <i name="bandstr">   -721.14120024 </i>
    <i name="atom">  11653.10734919 </i>
    <i name="e_fr_energy">    -84.82398318 </i>
    <i name="e_wo_entrp">    -84.79285143 </i>
    <i name="e_0_energy">    -84.80841730 </i>
   </energy>
  </scstep>
  <structure>
   <crystal>
    <varray name="basis" >
     <v>       5.63307200       0.00000000       0.21554300 </v>
     <v>       2.81241200       4.88076200       0.21554300 </v>
     <v>       0.00000000       0.00000000      36.85793800 </v>
    </varray>
    <i name="volume">   1013.36049145 </i>
    <varray name="rec_basis" >
     <v>       0.17752303      -0.10229302       0.00000000 </v>
     <v>       0.00000000       0.20488604       0.00000000 </v>
     <v>      -0.00103814      -0.00059996       0.02713120 </v>
    </varray>
   </crystal>
   <varray name="positions" >
    <v>       0.01562500       0.14062500       0.40625000 </v>
    <v>       0.01562500       0.64062500       0.40625000 </v>
    <v>       0.51562500       0.14062500       0.40625000 </v>
    <v>       0.51562500       0.64062500       0.40625000 </v>
    <v>       0.17187500       0.29687500       0.46875000 </v>
    <v>       0.17187500       0.79687500       0.46875000 </v>
    <v>       0.67187500       0.29687500       0.46875000 </v>
    <v>       0.67187500       0.79687500       0.46875000 </v>
    <v>       0.33895087       0.43496036       0.53132896 </v>
    <v>       0.33894558       0.93497032       0.53132963 </v>
    <v>       0.83894994       0.43496208       0.53132906 </v>
    <v>       0.83894467       0.93497170       0.53132938 </v>
    <v>       0.48748282       0.10750600       0.59699410 </v>
    <v>       0.48748791       0.60749766       0.59699384 </v>
    <v>       0.98748413       0.10750687       0.59699402 </v>
    <v>       0.98748888       0.60749643       0.59699350 </v>
   </varray>
  </structure>
  <varray name="forces" >
   <v>       0.11227159      -0.07510473      -0.63359727 </v>
   <v>       0.11228846      -0.07513448      -0.63364619 </v>
   <v>       0.11228576      -0.07509331      -0.63357233 </v>
   <v>       0.11227329      -0.07513961      -0.63365206 </v>
   <v>      -0.00361535       0.06954871       0.40672589 </v>
   <v>      -0.00362875       0.06954479       0.40678853 </v>
   <v>      -0.00362430       0.06955357       0.40661338 </v>
   <v>      -0.00363376       0.06955371       0.40681635 </v>
   <v>      -0.02998411       0.12353044       0.28675651 </v>
   <v>      -0.02992161       0.12264392       0.28593220 </v>
   <v>      -0.02995329       0.12345416       0.28656644 </v>
   <v>      -0.02988398       0.12263076       0.28626456 </v>
   <v>      -0.07871856      -0.11784011      -0.05936793 </v>
   <v>      -0.07868819      -0.11717694      -0.05952824 </v>
   <v>      -0.07883183      -0.11788906      -0.05946680 </v>
   <v>      -0.07863537      -0.11708181      -0.05963304 </v>
  </varray>
  <energy>
   <i name="e_fr_energy">    -84.82398318 </i>
   <i name="e_wo_entrp">    -84.79285143 </i>
   <i name="e_0_energy">    -84.80841730 </i>
  </energy>
  <time name="totalsc">   32.87   33.06</time>
 </calculation>
 <calculation>
  <scstep>
   <time name="dav">    1.81    1.82</time>
   <time name="total">    2.06    2.07</time>
   <energy>
    <i name="alphaZ">    240.14076488 </i>
    <i name="ewald"> 133872.89882403 </i>
    <i name="hartreedc">-145602.26687503 </i>
    <i name="XCdc">     42.75055254 </i>
    <i name="pawpsdc">  13874.96736095 </i>
    <i name="pawaedc"> -13444.49680019 </i>
    <i name="eentropy">     -0.03327211 </i>
    <i name="bandstr">   -721.90209523 </i>
    <i name="atom">  11653.10734919 </i>
    <i name="e_fr_energy">    -84.83419098 </i>
[...]
        <r>  0.0000  0.0002  0.0003  0.0004  0.0003  0.0126  0.0047  0.0070  0.0043 </r>
        <r>  0.0003  0.0002  0.0000  0.0009  0.0023  0.0016  0.0023  0.0001  0.0040 </r>
        <r>  0.0026  0.0000  0.0004  0.0000  0.0102  0.0000  0.0002  0.0092  0.0004 </r>
        <r>  0.0008  0.0000  0.0005  0.0004  0.0290  0.0035  0.0691  0.0388  0.0067 </r>
        <r>  0.0009  0.0000  0.0002  0.0001  0.0101  0.0010  0.0360  0.0016  0.0077 </r>
        <r>  0.0010  0.0000  0.0006  0.0002  0.0169  0.0026  0.0114  0.0150  0.0091 </r>
        <r>  0.0002  0.0001  0.0007  0.0001  0.0267  0.0001  0.0236  0.0000  0.0089 </r>
        <r>  0.0000  0.0001  0.0000  0.0005  0.0321  0.0055  0.0549  0.0406  0.0140 </r>
        <r>  0.0013  0.0000  0.0008  0.0000  0.0157  0.0001  0.0043  0.0054  0.0028 </r>
        <r>  0.0025  0.0000  0.0007  0.0000  0.0106  0.0006  0.0492  0.0042  0.0026 </r>
        <r>  0.0000  0.0001  0.0001  0.0003  0.0240  0.0001  0.0445  0.0021  0.0146 </r>
        <r>  0.0009  0.0002  0.0002  0.0004  0.0036  0.0019  0.0001  0.0030  0.0002 </r>
        <r>  0.0063  0.0000  0.0023  0.0006  0.0063  0.0021  0.0433  0.0007  0.0071 </r>
        <r>  0.0009  0.0001  0.0000  0.0000  0.0049  0.0041  0.0042  0.0106  0.0045 </r>
        <r>  0.0040  0.0000  0.0016  0.0003  0.0023  0.0009  0.0230  0.0139  0.0000 </r>
       </set>
       <set comment="band 86">
        <r>  0.0071  0.0001  0.0030  0.0003  0.0004  0.0121  0.0163  0.0008  0.0023 </r>
        <r>  0.0054  0.0004  0.0016  0.0013  0.0119  0.0003  0.0227  0.0009  0.0020 </r>
        <r>  0.0014  0.0002  0.0000  0.0006  0.0049  0.0047  0.0023  0.0205  0.0015 </r>
        <r>  0.0062  0.0001  0.0027  0.0005  0.0000  0.0001  0.0121  0.0013  0.0011 </r>
        <r>  0.0022  0.0000  0.0017  0.0001  0.0006  0.0032  0.0190  0.0039  0.0008 </r>
        <r>  0.0003  0.0001  0.0001  0.0010  0.0356  0.0049  0.0393  0.0678  0.0100 </r>
        <r>  0.0008  0.0002  0.0000  0.0004  0.0217  0.0000  0.0500  0.0067  0.0098 </r>
        <r>  0.0028  0.0000  0.0022  0.0001  0.0013  0.0001  0.0032  0.0046  0.0025 </r>
        <r>  0.0008  0.0001  0.0001  0.0007  0.0027  0.0004  0.0001  0.0333  0.0000 </r>
        <r>  0.0035  0.0001  0.0010  0.0003  0.0263  0.0062  0.1059  0.0275  0.0116 </r>
        <r>  0.0021  0.0000  0.0018  0.0001  0.0298  0.0001  0.0133  0.0000  0.0124 </r>
        <r>  0.0012  0.0002  0.0003  0.0005  0.0000  0.0013  0.0054  0.0172  0.0000 </r>
        <r>  0.0147  0.0000  0.0053  0.0000  0.0052  0.0061  0.0739  0.0084  0.0055 </r>
        <r>  0.0015  0.0006  0.0002  0.0009  0.0006  0.0038  0.0027  0.0007  0.0006 </r>
        <r>  0.0009  0.0001  0.0001  0.0012  0.0000  0.0002  0.0006  0.0129  0.0011 </r>
        <r>  0.0052  0.0000  0.0009  0.0004  0.0063  0.0000  0.0001  0.0046  0.0016 </r>
       </set>
       <set comment="band 87">
        <r>  0.0071  0.0023  0.0008  0.0013  0.0224  0.0003  0.0082  0.0013  0.0069 </r>
        <r>  0.0050  0.0038  0.0005  0.0009  0.0153  0.0015  0.0056  0.0000  0.0062 </r>
        <r>  0.0050  0.0038  0.0005  0.0009  0.0153  0.0015  0.0056  0.0000  0.0062 </r>
        <r>  0.0071  0.0023  0.0008  0.0013  0.0224  0.0003  0.0082  0.0013  0.0069 </r>
        <r>  0.0200  0.0064  0.0002  0.0024  0.0494  0.0001  0.0109  0.0001  0.0165 </r>
        <r>  0.0130  0.0107  0.0000  0.0034  0.0289  0.0003  0.0056  0.0001  0.0096 </r>
        <r>  0.0130  0.0107  0.0000  0.0034  0.0289  0.0003  0.0056  0.0001  0.0096 </r>
        <r>  0.0200  0.0064  0.0002  0.0024  0.0494  0.0001  0.0109  0.0001  0.0165 </r>
        <r>  0.0137  0.0075  0.0002  0.0021  0.0321  0.0010  0.0066  0.0001  0.0102 </r>
        <r>  0.0136  0.0068  0.0004  0.0026  0.0351  0.0003  0.0078  0.0004  0.0110 </r>
        <r>  0.0136  0.0068  0.0004  0.0026  0.0351  0.0003  0.0077  0.0004  0.0110 </r>
        <r>  0.0137  0.0075  0.0002  0.0021  0.0320  0.0010  0.0066  0.0001  0.0102 </r>
        <r>  0.0027  0.0008  0.0006  0.0005  0.0140  0.0001  0.0059  0.0008  0.0034 </r>
        <r>  0.0020  0.0017  0.0003  0.0004  0.0066  0.0016  0.0030  0.0000  0.0029 </r>
        <r>  0.0020  0.0017  0.0003  0.0004  0.0066  0.0016  0.0030  0.0000  0.0029 </r>
        <r>  0.0027  0.0008  0.0006  0.0005  0.0140  0.0001  0.0059  0.0008  0.0034 </r>
       </set>
       <set comment="band 88">
        <r>  0.0050  0.0038  0.0005  0.0009  0.0153  0.0015  0.0056  0.0000  0.0062 </r>
        <r>  0.0071  0.0023  0.0008  0.0013  0.0224  0.0003  0.0082  0.0013  0.0069 </r>
        <r>  0.0071  0.0023  0.0008  0.0013  0.0224  0.0003  0.0082  0.0013  0.0069 </r>
        <r>  0.0050  0.0038  0.0005  0.0009  0.0153  0.0015  0.0056  0.0000  0.0062 </r>
        <r>  0.0130  0.0107  0.0000  0.0034  0.0289  0.0003  0.0056  0.0001  0.0096 </r>
        <r>  0.0200  0.0064  0.0002  0.0024  0.0494  0.0001  0.0109  0.0001  0.0165 </r>
        <r>  0.0200  0.0064  0.0002  0.0024  0.0494  0.0001  0.0109  0.0001  0.0165 </r>
        <r>  0.0130  0.0107  0.0000  0.0034  0.0289  0.0003  0.0056  0.0001  0.0096 </r>
        <r>  0.0136  0.0068  0.0004  0.0026  0.0351  0.0003  0.0078  0.0004  0.0110 </r>
        <r>  0.0137  0.0075  0.0002  0.0021  0.0321  0.0010  0.0066  0.0001  0.0102 </r>
        <r>  0.0137  0.0075  0.0002  0.0021  0.0320  0.0010  0.0066  0.0001  0.0102 </r>
        <r>  0.0136  0.0068  0.0004  0.0026  0.0351  0.0003  0.0077  0.0004  0.0110 </r>
        <r>  0.0020  0.0017  0.0003  0.0004  0.0066  0.0016  0.0030  0.0000  0.0029 </r>
        <r>  0.0027  0.0008  0.0006  0.0005  0.0140  0.0001  0.0059  0.0008  0.0034 </r>
        <r>  0.0027  0.0008  0.0006  0.0005  0.0140  0.0001  0.0059  0.0008  0.0034 </r>
        <r>  0.0019  0.0017  0.0003  0.0004  0.0066  0.0016  0.0030  0.0000  0.0029 </r>
       </set>
       <set comment="band 89">
        <r>  0.0004  0.0003  0.0020  0.0007  0.0002  0.0126  0.0000  0.0398  0.0001 </r>
        <r>  0.0141  0.0000  0.0217  0.0001  0.0005  0.0003  0.0071  0.0009  0.0002 </r>
        <r>  0.0141  0.0000  0.0217  0.0002  0.0005  0.0003  0.0071  0.0009  0.0002 </r>
        <r>  0.0004  0.0003  0.0020  0.0007  0.0002  0.0126  0.0000  0.0398  0.0000 </r>
        <r>  0.0188  0.0009  0.0015  0.0030  0.0002  0.0020  0.0190  0.0064  0.0003 </r>
        <r>  0.0188  0.0009  0.0014  0.0021  0.0000  0.0001  0.0197  0.0012  0.0000 </r>
        <r>  0.0188  0.0009  0.0014  0.0021  0.0000  0.0001  0.0197  0.0013  0.0000 </r>
        <r>  0.0188  0.0009  0.0015  0.0030  0.0002  0.0020  0.0190  0.0064  0.0003 </r>
        <r>  0.0358  0.0000  0.0045  0.0000  0.0000  0.0003  0.0384  0.0003  0.0004 </r>
        <r>  0.0000  0.0016  0.0000  0.0045  0.0000  0.0022  0.0000  0.0103  0.0000 </r>
        <r>  0.0000  0.0016  0.0000  0.0045  0.0000  0.0022  0.0000  0.0103  0.0000 </r>
        <r>  0.0358  0.0000  0.0045  0.0000  0.0000  0.0003  0.0384  0.0003  0.0004 </r>
        <r>  0.0085  0.0001  0.0114  0.0002  0.0001  0.0035  0.0031  0.0177  0.0002 </r>
        <r>  0.0057  0.0003  0.0068  0.0005  0.0003  0.0053  0.0053  0.0233  0.0003 </r>
        <r>  0.0057  0.0003  0.0068  0.0005  0.0003  0.0053  0.0053  0.0233  0.0003 </r>
        <r>  0.0086  0.0001  0.0114  0.0002  0.0001  0.0035  0.0030  0.0177  0.0002 </r>
       </set>
       <set comment="band 90">
        <r>  0.0141  0.0000  0.0217  0.0001  0.0005  0.0003  0.0071  0.0009  0.0002 </r>
        <r>  0.0004  0.0003  0.0020  0.0007  0.0002  0.0126  0.0000  0.0398  0.0001 </r>
        <r>  0.0004  0.0003  0.0020  0.0007  0.0002  0.0126  0.0000  0.0398  0.0000 </r>
        <r>  0.0141  0.0000  0.0217  0.0002  0.0005  0.0003  0.0071  0.0009  0.0002 </r>
        <r>  0.0188  0.0009  0.0014  0.0021  0.0000  0.0001  0.0197  0.0012  0.0000 </r>
        <r>  0.0188  0.0009  0.0015  0.0030  0.0002  0.0020  0.0190  0.0064  0.0003 </r>
        <r>  0.0188  0.0009  0.0015  0.0030  0.0002  0.0020  0.0190  0.0064  0.0003 </r>
        <r>  0.0188  0.0009  0.0014  0.0021  0.0000  0.0001  0.0197  0.0013  0.0000 </r>
        <r>  0.0000  0.0016  0.0000  0.0045  0.0000  0.0022  0.0000  0.0103  0.0000 </r>
        <r>  0.0358  0.0000  0.0045  0.0000  0.0000  0.0003  0.0384  0.0003  0.0004 </r>
        <r>  0.0358  0.0000  0.0045  0.0000  0.0000  0.0003  0.0384  0.0003  0.0004 </r>
        <r>  0.0000  0.0016  0.0000  0.0045  0.0000  0.0022  0.0000  0.0103  0.0000 </r>
        <r>  0.0056  0.0003  0.0068  0.0005  0.0003  0.0053  0.0053  0.0234  0.0003 </r>
        <r>  0.0086  0.0001  0.0113  0.0002  0.0001  0.0035  0.0030  0.0177  0.0002 </r>
        <r>  0.0086  0.0001  0.0113  0.0002  0.0001  0.0035  0.0030  0.0177  0.0002 </r>
        <r>  0.0057  0.0003  0.0068  0.0005  0.0003  0.0053  0.0053  0.0233  0.0003 </r>
       </set>
       <set comment="band 91">
        <r>  0.0295  0.0004  0.0000  0.0001  0.0623  0.0003  0.0052  0.0004  0.0212 </r>
        <r>  0.0005  0.0205  0.0000  0.0068  0.0016  0.0009  0.0001  0.0003  0.0000 </r>
        <r>  0.0005  0.0205  0.0000  0.0068  0.0016  0.0009  0.0001  0.0003  0.0000 </r>
        <r>  0.0295  0.0004  0.0000  0.0001  0.0623  0.0003  0.0053  0.0004  0.0212 </r>
        <r>  0.0070  0.0003  0.0051  0.0001  0.0109  0.0000  0.0005  0.0005  0.0043 </r>
        <r>  0.0001  0.0046  0.0001  0.0018  0.0005  0.0077  0.0000  0.0018  0.0000 </r>
        <r>  0.0001  0.0046  0.0001  0.0018  0.0005  0.0078  0.0000  0.0018  0.0000 </r>
        <r>  0.0070  0.0003  0.0051  0.0001  0.0109  0.0000  0.0005  0.0005  0.0043 </r>
        <r>  0.0147  0.0002  0.0037  0.0006  0.0254  0.0010  0.0014  0.0003  0.0087 </r>
        <r>  0.0009  0.0099  0.0002  0.0031  0.0005  0.0039  0.0000  0.0013  0.0008 </r>
        <r>  0.0009  0.0099  0.0002  0.0031  0.0005  0.0039  0.0000  0.0013  0.0008 </r>
        <r>  0.0148  0.0002  0.0037  0.0006  0.0254  0.0010  0.0014  0.0003  0.0087 </r>
        <r>  0.0052  0.0163  0.0002  0.0056  0.0112  0.0016  0.0025  0.0004  0.0060 </r>
        <r>  0.0253  0.0029  0.0003  0.0011  0.0628  0.0000  0.0089  0.0006  0.0201 </r>
        <r>  0.0253  0.0029  0.0003  0.0011  0.0628  0.0000  0.0089  0.0006  0.0201 </r>
        <r>  0.0052  0.0163  0.0002  0.0056  0.0112  0.0016  0.0025  0.0004  0.0060 </r>
       </set>
       <set comment="band 92">
        <r>  0.0005  0.0205  0.0000  0.0068  0.0016  0.0009  0.0001  0.0003  0.0000 </r>
        <r>  0.0295  0.0004  0.0000  0.0001  0.0623  0.0003  0.0053  0.0004  0.0212 </r>
        <r>  0.0295  0.0004  0.0000  0.0001  0.0623  0.0003  0.0052  0.0004  0.0212 </r>
        <r>  0.0005  0.0205  0.0000  0.0068  0.0016  0.0009  0.0001  0.0003  0.0000 </r>
        <r>  0.0001  0.0045  0.0001  0.0018  0.0005  0.0078  0.0000  0.0018  0.0000 </r>
        <r>  0.0070  0.0003  0.0051  0.0001  0.0109  0.0000  0.0005  0.0005  0.0043 </r>
        <r>  0.0070  0.0003  0.0051  0.0001  0.0109  0.0000  0.0005  0.0005  0.0043 </r>
        <r>  0.0001  0.0046  0.0001  0.0018  0.0005  0.0077  0.0000  0.0018  0.0000 </r>
        <r>  0.0009  0.0099  0.0002  0.0031  0.0005  0.0039  0.0000  0.0013  0.0008 </r>
        <r>  0.0147  0.0002  0.0037  0.0006  0.0254  0.0010  0.0014  0.0003  0.0087 </r>
        <r>  0.0148  0.0002  0.0037  0.0006  0.0254  0.0010  0.0014  0.0003  0.0087 </r>
        <r>  0.0009  0.0099  0.0002  0.0031  0.0005  0.0039  0.0000  0.0013  0.0008 </r>
        <r>  0.0254  0.0029  0.0003  0.0011  0.0628  0.0000  0.0089  0.0006  0.0201 </r>
        <r>  0.0052  0.0163  0.0002  0.0056  0.0113  0.0016  0.0025  0.0004  0.0060 </r>
        <r>  0.0052  0.0163  0.0002  0.0056  0.0112  0.0016  0.0025  0.0004  0.0060 </r>
        <r>  0.0253  0.0029  0.0003  0.0011  0.0628  0.0000  0.0089  0.0006  0.0201 </r>
       </set>
       <set comment="band 93">
        <r>  0.0014  0.0205  0.0002  0.0064  0.0009  0.0020  0.0000  0.0011  0.0012 </r>
        <r>  0.0358  0.0005  0.0036  0.0011  0.0346  0.0010  0.0000  0.0011  0.0111 </r>
        <r>  0.0358  0.0005  0.0036  0.0011  0.0346  0.0010  0.0000  0.0011  0.0111 </r>
        <r>  0.0014  0.0205  0.0002  0.0064  0.0009  0.0020  0.0000  0.0011  0.0012 </r>
        <r>  0.0008  0.0070  0.0005  0.0030  0.0001  0.0123  0.0000  0.0042  0.0015 </r>
        <r>  0.0089  0.0004  0.0094  0.0001  0.0089  0.0000  0.0002  0.0028  0.0034 </r>
        <r>  0.0089  0.0004  0.0095  0.0001  0.0089  0.0000  0.0002  0.0028  0.0034 </r>
        <r>  0.0008  0.0070  0.0005  0.0031  0.0001  0.0123  0.0000  0.0042  0.0015 </r>
        <r>  0.0000  0.0093  0.0000  0.0039  0.0001  0.0105  0.0001  0.0053  0.0007 </r>
        <r>  0.0120  0.0000  0.0085  0.0000  0.0103  0.0009  0.0003  0.0010  0.0052 </r>
        <r>  0.0120  0.0000  0.0085  0.0000  0.0103  0.0009  0.0003  0.0010  0.0052 </r>
        <r>  0.0000  0.0093  0.0000  0.0039  0.0001  0.0105  0.0001  0.0053  0.0007 </r>
        <r>  0.0488  0.0004  0.0026  0.0007  0.0474  0.0007  0.0006  0.0007  0.0174 </r>
        <r>  0.0012  0.0251  0.0001  0.0088  0.0008  0.0024  0.0000  0.0005  0.0009 </r>
        <r>  0.0012  0.0251  0.0001  0.0088  0.0008  0.0024  0.0000  0.0005  0.0009 </r>
        <r>  0.0488  0.0004  0.0026  0.0007  0.0474  0.0007  0.0006  0.0007  0.0174 </r>
       </set>
       <set comment="band 94">
        <r>  0.0358  0.0005  0.0036  0.0011  0.0346  0.0010  0.0000  0.0011  0.0111 </r>
        <r>  0.0014  0.0205  0.0002  0.0064  0.0009  0.0020  0.0000  0.0011  0.0012 </r>
        <r>  0.0014  0.0205  0.0002  0.0064  0.0009  0.0020  0.0000  0.0011  0.0012 </r>
        <r>  0.0358  0.0005  0.0036  0.0011  0.0346  0.0010  0.0000  0.0011  0.0111 </r>
        <r>  0.0089  0.0004  0.0094  0.0001  0.0089  0.0000  0.0002  0.0028  0.0034 </r>
        <r>  0.0008  0.0070  0.0005  0.0031  0.0001  0.0123  0.0000  0.0042  0.0015 </r>
        <r>  0.0008  0.0070  0.0005  0.0031  0.0001  0.0123  0.0000  0.0042  0.0015 </r>
        <r>  0.0089  0.0004  0.0094  0.0001  0.0089  0.0000  0.0002  0.0028  0.0034 </r>
        <r>  0.0120  0.0000  0.0085  0.0000  0.0103  0.0009  0.0003  0.0010  0.0052 </r>
        <r>  0.0001  0.0093  0.0000  0.0039  0.0001  0.0105  0.0001  0.0053  0.0007 </r>
        <r>  0.0000  0.0093  0.0000  0.0039  0.0001  0.0105  0.0001  0.0053  0.0007 </r>
        <r>  0.0120  0.0000  0.0085  0.0000  0.0103  0.0009  0.0003  0.0010  0.0052 </r>
        <r>  0.0012  0.0251  0.0001  0.0088  0.0008  0.0025  0.0000  0.0005  0.0009 </r>
        <r>  0.0488  0.0004  0.0025  0.0007  0.0473  0.0007  0.0006  0.0007  0.0174 </r>
        <r>  0.0488  0.0004  0.0025  0.0007  0.0473  0.0007  0.0006  0.0007  0.0174 </r>
        <r>  0.0012  0.0251  0.0001  0.0088  0.0008  0.0024  0.0000  0.0005  0.0009 </r>
       </set>
       <set comment="band 95">
        <r>  0.0006  0.0001  0.0319  0.0004  0.0000  0.0020  0.0015  0.0060  0.0000 </r>
        <r>  0.0001  0.0000  0.0050  0.0001  0.0002  0.0040  0.0000  0.0126  0.0000 </r>
        <r>  0.0001  0.0000  0.0050  0.0001  0.0002  0.0040  0.0000  0.0126  0.0000 </r>
        <r>  0.0006  0.0001  0.0319  0.0004  0.0000  0.0020  0.0015  0.0060  0.0000 </r>
        <r>  0.0014  0.0000  0.0002  0.0001  0.0008  0.0075  0.0003  0.0259  0.0003 </r>
        <r>  0.0000  0.0001  0.0381  0.0004  0.0000  0.0001  0.0001  0.0002  0.0000 </r>
        <r>  0.0000  0.0001  0.0381  0.0004  0.0000  0.0001  0.0001  0.0002  0.0000 </r>
        <r>  0.0014  0.0000  0.0002  0.0001  0.0008  0.0075  0.0003  0.0259  0.0003 </r>
        <r>  0.0007  0.0001  0.0247  0.0003  0.0002  0.0030  0.0005  0.0119  0.0001 </r>
        <r>  0.0002  0.0000  0.0134  0.0001  0.0002  0.0044  0.0001  0.0163  0.0001 </r>
        <r>  0.0002  0.0000  0.0134  0.0001  0.0002  0.0044  0.0001  0.0163  0.0001 </r>
        <r>  0.0007  0.0001  0.0247  0.0003  0.0002  0.0030  0.0005  0.0119  0.0001 </r>
        <r>  0.0002  0.0001  0.0040  0.0003  0.0000  0.0061  0.0005  0.0209  0.0000 </r>
        <r>  0.0000  0.0000  0.0337  0.0001  0.0001  0.0003  0.0008  0.0009  0.0000 </r>
        <r>  0.0000  0.0000  0.0337  0.0001  0.0001  0.0003  0.0008  0.0009  0.0000 </r>
        <r>  0.0002  0.0001  0.0040  0.0003  0.0000  0.0061  0.0005  0.0209  0.0000 </r>
       </set>
       <set comment="band 96">
        <r>  0.0001  0.0000  0.0050  0.0001  0.0002  0.0040  0.0000  0.0126  0.0000 </r>
        <r>  0.0006  0.0001  0.0319  0.0004  0.0000  0.0020  0.0015  0.0060  0.0000 </r>
        <r>  0.0006  0.0001  0.0320  0.0004  0.0000  0.0020  0.0015  0.0060  0.0000 </r>
        <r>  0.0001  0.0000  0.0050  0.0001  0.0002  0.0040  0.0000  0.0126  0.0000 </r>
        <r>  0.0000  0.0001  0.0381  0.0004  0.0000  0.0001  0.0001  0.0002  0.0000 </r>
        <r>  0.0014  0.0000  0.0002  0.0001  0.0008  0.0075  0.0003  0.0259  0.0003 </r>
        <r>  0.0014  0.0000  0.0002  0.0001  0.0008  0.0075  0.0003  0.0259  0.0003 </r>
        <r>  0.0000  0.0001  0.0381  0.0004  0.0000  0.0001  0.0001  0.0002  0.0000 </r>
        <r>  0.0002  0.0000  0.0134  0.0001  0.0002  0.0044  0.0001  0.0163  0.0001 </r>
        <r>  0.0007  0.0001  0.0247  0.0003  0.0002  0.0030  0.0005  0.0119  0.0001 </r>
        <r>  0.0007  0.0001  0.0248  0.0003  0.0002  0.0030  0.0005  0.0119  0.0001 </r>
        <r>  0.0002  0.0000  0.0134  0.0001  0.0002  0.0044  0.0001  0.0163  0.0001 </r>
        <r>  0.0000  0.0000  0.0336  0.0001  0.0001  0.0003  0.0008  0.0009  0.0000 </r>
        <r>  0.0002  0.0001  0.0040  0.0003  0.0000  0.0060  0.0005  0.0209  0.0000 </r>
        <r>  0.0002  0.0001  0.0040  0.0003  0.0000  0.0061  0.0005  0.0209  0.0000 </r>
        <r>  0.0000  0.0000  0.0337  0.0001  0.0001  0.0003  0.0008  0.0009  0.0000 </r>
       </set>
      </set>
     </set>
    </set>
   </array>
  </projected>
 </calculation>
 <structure name="finalpos" >
  <crystal>
   <varray name="basis" >
    <v>       5.63307200       0.00000000       0.21554300 </v>
    <v>       2.81241200       4.88076200       0.21554300 </v>
    <v>       0.00000000       0.00000000      36.85793800 </v>
   </varray>
   <i name="volume">   1013.36049145 </i>
   <varray name="rec_basis" >
    <v>       0.17752303      -0.10229302       0.00000000 </v>
    <v>       0.00000000       0.20488604       0.00000000 </v>
    <v>      -0.00103814      -0.00059996       0.02713120 </v>
   </varray>
  </crystal>
  <varray name="positions" >
   <v>       0.01562500       0.14062500       0.40625000 </v>
   <v>       0.01562500       0.64062500       0.40625000 </v>
   <v>       0.51562500       0.14062500       0.40625000 </v>
   <v>       0.51562500       0.64062500       0.40625000 </v>
   <v>       0.17187500       0.29687500       0.46875000 </v>
   <v>       0.17187500       0.79687500       0.46875000 </v>
   <v>       0.67187500       0.29687500       0.46875000 </v>
   <v>       0.67187500       0.79687500       0.46875000 </v>
   <v>       0.34279240       0.40917251       0.53212608 </v>
   <v>       0.34280310       0.90913783       0.53213236 </v>
   <v>       0.84276600       0.40926120       0.53213975 </v>
   <v>       0.84287502       0.90923432       0.53213222 </v>
   <v>       0.51315900       0.01054876       0.59867069 </v>
   <v>       0.51312601       0.51050914       0.59868395 </v>
   <v>       0.01312145       0.01049279       0.59868636 </v>
   <v>       0.01311359       0.51052281       0.59868059 </v>
  </varray>
  <varray name="selective"  type="logical" >
   <v type="logical" >  F  F  F </v>
   <v type="logical" >  F  F  F </v>
   <v type="logical" >  F  F  F </v>
   <v type="logical" >  F  F  F </v>
   <v type="logical" >  F  F  F </v>
   <v type="logical" >  F  F  F </v>
   <v type="logical" >  F  F  F </v>
   <v type="logical" >  F  F  F </v>
   <v type="logical" >  T  T  T </v>
   <v type="logical" >  T  T  T </v>
   <v type="logical" >  T  T  T </v>
   <v type="logical" >  T  T  T </v>
   <v type="logical" >  T  T  T </v>
   <v type="logical" >  T  T  T </v>
   <v type="logical" >  T  T  T </v>
   <v type="logical" >  T  T  T </v>
  </varray>
  <nose>
   <v>      -3.00000000       0.00000000       0.00010000       0.00010000 </v>
  </nose>
 </structure>
</modeling>
