 running on   16 total cores
 distrk:  each k-point on   16 cores,    1 groups
 distr:  one band on    4 cores,    4 groups
 vasp.6.2.0 18Jan21 (build Feb  1 2022 01:28:57) complex                         
 POSCAR found type information on POSCAR Pt
 POSCAR found :  1 types and      16 ions
 scaLAPACK will be used
 -----------------------------------------------------------------------------
|                                                                             |
|           W    W    AA    RRRRR   N    N  II  N    N   GGGG   !!!           |
|           W    W   A  A   R    R  NN   N  II  NN   N  G    G  !!!           |
|           W    W  A    A  R    R  N N  N  II  N N  N  G       !!!           |
|           W WW W  AAAAAA  RRRRR   N  N N  II  N  N N  G  GGG   !            |
|           WW  WW  A    A  R   R   N   NN  II  N   NN  G    G                |
|           W    W  A    A  R    R  N    N  II  N    N   GGGG   !!!           |
|                                                                             |
|     The real-space projection scheme for the treatment of the non-local     |
|     pseudopotentials has been switched on but on file POTCAR I have not     |
|     found any entries, signalling me that you have never performed a        |
|     real-space optimization of all non-local projectors! BE WARNED that     |
|     a calculation using the real-space projection scheme together with      |
|     non-local projectors which were not real-space optimized (according     |
|     to the plane-wave cutoff used in this calculation) might give more      |
|     or less inaccurate results. I hope you know what you are doing.         |
|                                                                             |
 -----------------------------------------------------------------------------

 -----------------------------------------------------------------------------
|                                                                             |
|               ----> ADVICE to this user running VASP <----                  |
|                                                                             |
|     You enforced a specific xc type in the INCAR file but a different       |
|     type was found in the POTCAR file.                                      |
|     I HOPE YOU KNOW WHAT YOU ARE DOING!                                     |
|                                                                             |
 -----------------------------------------------------------------------------

 LDA part: xc-table for Pade appr. of Perdew
 POSCAR, INCAR and KPOINTS ok, starting setup
 FFT: planning ...
 WAVECAR not read
 entering main loop
       N       E                     dE             d eps       ncg     rms          rms(c)
DAV:   1     0.110312558125E+04    0.11031E+04   -0.57180E+04   768   0.114E+03
DAV:   2     0.122520440170E+02   -0.10909E+04   -0.10144E+04  1048   0.244E+02
DAV:   3    -0.858749250831E+02   -0.98127E+02   -0.90233E+02   904   0.719E+01
DAV:   4    -0.897656400058E+02   -0.38907E+01   -0.36868E+01  1056   0.136E+01
DAV:   5    -0.898790503539E+02   -0.11341E+00   -0.10926E+00   952   0.211E+00    0.379E+01
DAV:   6    -0.919575478031E+02   -0.20785E+01   -0.26140E+01   816   0.218E+01    0.422E+01
DAV:   7    -0.859580586916E+02    0.59995E+01   -0.13783E+01   840   0.174E+01    0.276E+01
DAV:   8    -0.853830124443E+02    0.57505E+00   -0.10354E+01   816   0.113E+01    0.133E+01
DAV:   9    -0.145205915191E+03   -0.59823E+02   -0.47249E+01  1152   0.679E+01    0.592E+01
DAV:  10    -0.897726905988E+02    0.55433E+02   -0.36147E+01  1080   0.428E+01    0.232E+01
DAV:  11    -0.956592106462E+02   -0.58865E+01   -0.30643E+01   848   0.172E+01    0.291E+01
DAV:  12    -0.889076072341E+02    0.67516E+01   -0.16525E+01   952   0.112E+01    0.187E+01
DAV:  13    -0.885239219430E+02    0.38369E+00   -0.30174E+00   936   0.113E+01    0.187E+01
DAV:  14    -0.849777962793E+02    0.35461E+01   -0.59057E+00   872   0.941E+00    0.435E+00
DAV:  15    -0.850116326362E+02   -0.33836E-01   -0.71698E-01   896   0.298E+00    0.526E+00
DAV:  16    -0.849559325832E+02    0.55700E-01   -0.40163E-02   904   0.875E-01    0.393E+00
DAV:  17    -0.849438106271E+02    0.12122E-01   -0.26693E-03   976   0.227E-01    0.396E+00
DAV:  18    -0.849133797218E+02    0.30431E-01   -0.93664E-02   880   0.218E+00    0.499E+00
DAV:  19    -0.848872480491E+02    0.26132E-01   -0.65325E-02   872   0.125E+00    0.440E+00
DAV:  20    -0.848546192315E+02    0.32629E-01   -0.17959E-02   872   0.540E-01    0.335E+00
DAV:  21    -0.848436893195E+02    0.10930E-01   -0.37931E-03   896   0.170E-01    0.302E+00
DAV:  22    -0.848431798660E+02    0.50945E-03   -0.13063E-04   480   0.421E-02    0.304E+00
DAV:  23    -0.848087821018E+02    0.34398E-01   -0.40735E-02   840   0.681E-01    0.162E+00
DAV:  24    -0.847892236137E+02    0.19558E-01   -0.12078E-01   880   0.120E+00    0.186E+00
DAV:  25    -0.847796966384E+02    0.95270E-02   -0.13534E-02   912   0.644E-01    0.146E+00
DAV:  26    -0.847738918928E+02    0.58047E-02   -0.17586E-02   904   0.364E-01    0.493E-01
DAV:  27    -0.847745643648E+02   -0.67247E-03   -0.12043E-03   848   0.192E-01    0.395E-01
DAV:  28    -0.847737380137E+02    0.82635E-03   -0.10924E-03   808   0.185E-01    0.299E-01
DAV:  29    -0.847734895340E+02    0.24848E-03   -0.68537E-04   640   0.959E-02    0.307E-01
DAV:  30    -0.847733378378E+02    0.15170E-03   -0.18443E-04   440   0.530E-02    0.331E-01
DAV:  31    -0.847723976231E+02    0.94021E-03   -0.48310E-04   712   0.169E-01    0.202E-01
DAV:  32    -0.847722507005E+02    0.14692E-03   -0.19555E-04   472   0.624E-02    0.114E-01
DAV:  33    -0.847722256736E+02    0.25027E-04   -0.45482E-05   424   0.307E-02
   1 F= -.84772226E+02 E0= -.84755121E+02  d E =-.847722E+02
 curvature:   0.00 expect dE= 0.000E+00 dE for cont linesearch  0.000E+00
 trial: gam= 0.00000 g(F)=  0.124E+00 g(S)=  0.000E+00 ort = 0.000E+00 (trialstep = 0.100E+01)
 search vector abs. value=  0.124E+00
 bond charge predicted
       N       E                     dE             d eps       ncg     rms          rms(c)
DAV:   1    -0.847999544596E+02   -0.27704E-01   -0.34918E+01   768   0.154E+01    0.131E+00
DAV:   2    -0.848931038779E+02   -0.93149E-01   -0.50111E-01   840   0.336E+00    0.270E+00
DAV:   3    -0.849503929230E+02   -0.57289E-01   -0.48479E-02   888   0.932E-01    0.386E+00
DAV:   4    -0.851073359299E+02   -0.15694E+00   -0.14976E-01   944   0.169E+00    0.652E+00
DAV:   5    -0.851117806119E+02   -0.44447E-02   -0.75890E-03   808   0.290E-01    0.648E+00
DAV:   6    -0.848641083721E+02    0.24767E+00   -0.24106E-01  1152   0.278E+00    0.259E+00
DAV:   7    -0.848878880560E+02   -0.23780E-01   -0.14395E-02   840   0.774E-01    0.332E+00
DAV:   8    -0.848761801239E+02    0.11708E-01   -0.16959E-02   864   0.415E-01    0.258E+00
DAV:   9    -0.848515064330E+02    0.24674E-01   -0.65159E-02   904   0.192E+00    0.153E+00
DAV:  10    -0.848472053791E+02    0.43011E-02   -0.20701E-02   808   0.588E-01    0.210E+00
DAV:  11    -0.848523375265E+02   -0.51321E-02   -0.23851E-02   952   0.612E-01    0.174E+00
DAV:  12    -0.848645781566E+02   -0.12241E-01   -0.69544E-03   864   0.442E-01    0.184E+00
DAV:  13    -0.848670564956E+02   -0.24783E-02   -0.10454E-03   840   0.113E-01    0.182E+00
DAV:  14    -0.848733688866E+02   -0.63124E-02   -0.20149E-03   832   0.240E-01    0.213E+00
DAV:  15    -0.848532776677E+02    0.20091E-01   -0.95128E-03   848   0.684E-01    0.142E+00
DAV:  16    -0.848451973886E+02    0.80803E-02   -0.54828E-03   896   0.395E-01    0.101E+00
DAV:  17    -0.848374485642E+02    0.77488E-02   -0.61125E-03   912   0.502E-01    0.653E-01
DAV:  18    -0.848367243551E+02    0.72421E-03   -0.92194E-04   832   0.129E-01    0.660E-01
DAV:  19    -0.848362745818E+02    0.44977E-03   -0.10538E-04   456   0.597E-02    0.587E-01
DAV:  20    -0.848356074489E+02    0.66713E-03   -0.64125E-04   832   0.117E-01    0.363E-01
DAV:  21    -0.848354062346E+02    0.20121E-03   -0.16450E-04   456   0.586E-02    0.265E-01
DAV:  22    -0.848352562362E+02    0.15000E-03   -0.10458E-04   432   0.524E-02    0.181E-01
DAV:  23    -0.848351358753E+02    0.12036E-03   -0.76068E-05   432   0.518E-02    0.117E-01
DAV:  24    -0.848350597298E+02    0.76145E-04   -0.90074E-05   480   0.524E-02
   2 F= -.84835060E+02 E0= -.84818223E+02  d E =-.628341E-01
 trial-energy change:   -0.062834  1 .order   -0.066814   -0.123956   -0.009672
 step:   1.1102(harm=  1.0846)  dis= 0.03558  next Energy=   -84.835587 (dE=-0.634E-01)
 bond charge predicted
       N       E                     dE             d eps       ncg     rms          rms(c)
DAV:   1    -0.848349604250E+02    0.17545E-03   -0.42319E-01   768   0.169E+00    0.173E-01
DAV:   2    -0.848398060773E+02   -0.48457E-02   -0.13665E-02   816   0.636E-01    0.914E-01
DAV:   3    -0.848527201666E+02   -0.12914E-01   -0.15351E-02   864   0.461E-01    0.183E+00
DAV:   4    -0.848417059142E+02    0.11014E-01   -0.54704E-03   888   0.426E-01    0.121E+00
DAV:   5    -0.848384295885E+02    0.32763E-02   -0.39683E-03   768   0.217E-01    0.816E-01
DAV:   6    -0.848378346854E+02    0.59490E-03   -0.94491E-04   736   0.178E-01    0.705E-01
DAV:   7    -0.848353324216E+02    0.25023E-02   -0.57092E-03   736   0.304E-01    0.993E-02
DAV:   8    -0.848353131690E+02    0.19253E-04   -0.32356E-04   672   0.117E-01
   3 F= -.84835313E+02 E0= -.84818483E+02  d E =-.630875E-01
 curvature:  -0.49 expect dE=-0.138E-01 dE for cont linesearch -0.236E-04
 trial: gam= 0.20701 g(F)=  0.281E-01 g(S)=  0.000E+00 ort = 0.244E-02 (trialstep = 0.102E+01)
 search vector abs. value=  0.344E-01
 bond charge predicted
       N       E                     dE             d eps       ncg     rms          rms(c)
DAV:   1    -0.848484223461E+02   -0.13090E-01   -0.95601E+00   768   0.810E+00    0.428E-01
DAV:   2    -0.848827901268E+02   -0.34368E-01   -0.20526E-01   816   0.161E+00    0.240E+00
DAV:   3    -0.848746375622E+02    0.81526E-02   -0.25749E-01   920   0.182E+00    0.180E+00
DAV:   4    -0.848623657133E+02    0.12272E-01   -0.64031E-02   920   0.118E+00    0.735E-01
DAV:   5    -0.848608020327E+02    0.15637E-02   -0.22174E-03   856   0.181E-01    0.590E-01
DAV:   6    -0.848651533274E+02   -0.43513E-02   -0.27710E-02  1016   0.856E-01    0.116E+00
DAV:   7    -0.848580432686E+02    0.71101E-02   -0.27751E-02  1016   0.738E-01    0.294E-01
DAV:   8    -0.848574103242E+02    0.63294E-03   -0.29781E-03   824   0.188E-01    0.999E-02
DAV:   9    -0.848575380247E+02   -0.12770E-03   -0.82191E-04   520   0.123E-01    0.168E-01
DAV:  10    -0.848574268698E+02    0.11115E-03   -0.75010E-04   472   0.108E-01    0.866E-02
DAV:  11    -0.848574398736E+02   -0.13004E-04   -0.89474E-05   456   0.366E-02
   4 F= -.84857440E+02 E0= -.84840387E+02  d E =-.221267E-01
 trial-energy change:   -0.022127  1 .order   -0.023539   -0.029230   -0.017848
 step:   2.6247(harm=  2.6247)  dis= 0.02483  next Energy=   -84.872845 (dE=-0.375E-01)
 bond charge predicted
       N       E                     dE             d eps       ncg     rms          rms(c)
DAV:   1    -0.848311151587E+02    0.26312E-01   -0.23604E+01   768   0.127E+01    0.665E-01
DAV:   2    -0.848789436637E+02   -0.47829E-01   -0.33783E-01   808   0.227E+00    0.192E+00
DAV:   3    -0.849245149551E+02   -0.45571E-01   -0.69956E-01   968   0.252E+00    0.391E+00
DAV:   4    -0.848664695371E+02    0.58045E-01   -0.18551E-01   920   0.177E+00    0.114E+00
DAV:   5    -0.848620777395E+02    0.43918E-02   -0.48913E-03   880   0.273E-01    0.985E-01
DAV:   6    -0.848548307734E+02    0.72470E-02   -0.44264E-03   872   0.476E-01    0.478E-01
DAV:   7    -0.848610489907E+02   -0.62182E-02   -0.23592E-02   832   0.700E-01    0.121E+00
DAV:   8    -0.848568899939E+02    0.41590E-02   -0.71966E-02  1056   0.112E+00    0.866E-01
DAV:   9    -0.848534351534E+02    0.34548E-02   -0.71708E-03   864   0.323E-01    0.243E-01
DAV:  10    -0.848531354414E+02    0.29971E-03   -0.11198E-03   544   0.166E-01    0.114E-01
DAV:  11    -0.848531419137E+02   -0.64723E-05   -0.20369E-04   480   0.501E-02
   5 F= -.84853142E+02 E0= -.84836144E+02  d E =-.178287E-01
 curvature:  -1.58 expect dE=-0.210E-01 dE for cont linesearch -0.740E-04
 trial: gam= 0.74134 g(F)=  0.133E-01 g(S)=  0.000E+00 ort =-0.127E-02 (trialstep = 0.134E+01)
 search vector abs. value=  0.303E-01
 bond charge predicted
       N       E                     dE             d eps       ncg     rms          rms(c)
DAV:   1    -0.848384357426E+02    0.14700E-01   -0.15039E+01   768   0.100E+01    0.705E-01
DAV:   2    -0.848693444051E+02   -0.30909E-01   -0.22642E-01   832   0.197E+00    0.104E+00
DAV:   3    -0.849129861514E+02   -0.43642E-01   -0.45857E-01   920   0.235E+00    0.337E+00
DAV:   4    -0.848960586114E+02    0.16928E-01   -0.66370E-01  1000   0.285E+00    0.306E+00
DAV:   5    -0.848639150936E+02    0.32144E-01   -0.40536E-02   880   0.771E-01    0.169E+00
DAV:   6    -0.848911863531E+02   -0.27271E-01   -0.41005E-02   984   0.887E-01    0.280E+00
DAV:   7    -0.848569382044E+02    0.34248E-01   -0.20644E-01  1192   0.163E+00    0.798E-01
DAV:   8    -0.848542382316E+02    0.27000E-02   -0.30315E-02   864   0.544E-01    0.377E-01
DAV:   9    -0.848534982266E+02    0.74001E-03   -0.18100E-03   704   0.127E-01    0.131E-01
DAV:  10    -0.848533100492E+02    0.18818E-03   -0.52532E-04   496   0.128E-01    0.751E-02
DAV:  11    -0.848533188242E+02   -0.87750E-05   -0.23106E-04   480   0.500E-02
   6 F= -.84853319E+02 E0= -.84836772E+02  d E =-.176911E-03
 trial-energy change:   -0.000177  1 .order   -0.013587   -0.016578   -0.010597
 step:   3.7216(harm=  3.7216)  dis= 0.05944  next Energy=   -84.876119 (dE=-0.230E-01)
 bond charge predicted
       N       E                     dE             d eps       ncg     rms          rms(c)
DAV:   1    -0.847779485817E+02    0.75361E-01   -0.47310E+01   768   0.177E+01    0.113E+00
DAV:   2    -0.849339369087E+02   -0.15599E+00   -0.94722E-01   824   0.397E+00    0.373E+00
DAV:   3    -0.848648188676E+02    0.69118E-01   -0.18346E-01   832   0.153E+00    0.145E+00
DAV:   4    -0.848963194169E+02   -0.31501E-01   -0.49662E-01   888   0.213E+00    0.379E+00
DAV:   5    -0.848399893754E+02    0.56330E-01   -0.85101E-02   872   0.120E+00    0.197E+00
DAV:   6    -0.848857299451E+02   -0.45741E-01   -0.11884E-01   880   0.129E+00    0.349E+00
DAV:   7    -0.848361746912E+02    0.49555E-01   -0.39025E-01   936   0.197E+00    0.133E+00
DAV:   8    -0.848376711939E+02   -0.14965E-02   -0.17975E-01   856   0.929E-01    0.151E+00
DAV:   9    -0.848254891034E+02    0.12182E-01   -0.55916E-02   904   0.609E-01    0.335E-01
DAV:  10    -0.848251029940E+02    0.38611E-03   -0.22851E-03   872   0.138E-01    0.458E-01
DAV:  11    -0.848253143576E+02   -0.21136E-03   -0.61863E-04   472   0.731E-02    0.541E-01
DAV:  12    -0.848250967187E+02    0.21764E-03   -0.33201E-04   416   0.537E-02    0.503E-01
DAV:  13    -0.848243838331E+02    0.71289E-03   -0.10182E-03   688   0.100E-01    0.354E-01
DAV:  14    -0.848242180415E+02    0.16579E-03   -0.20772E-04   456   0.436E-02    0.290E-01
DAV:  15    -0.848240534291E+02    0.16461E-03   -0.30399E-04   456   0.407E-02    0.187E-01
DAV:  16    -0.848239831763E+02    0.70253E-04   -0.16086E-04   408   0.336E-02
   7 F= -.84823983E+02 E0= -.84808417E+02  d E =0.291587E-01
 curvature:  -4.57 expect dE=-0.107E+00 dE for cont linesearch -0.109E-01
 ZBRENT: interpolating
 opt :   2.4866  next Energy=   -84.857834 (dE=-0.469E-02)
 bond charge predicted
       N       E                     dE             d eps       ncg     rms          rms(c)
DAV:   1    -0.848341909753E+02   -0.10138E-01   -0.12694E+01   768   0.905E+00    0.581E-01
DAV:   2    -0.849666532707E+02   -0.13246E+00   -0.74740E-01   832   0.316E+00    0.441E+00
DAV:   3    -0.849137235014E+02    0.52930E-01   -0.58313E-02   816   0.959E-01    0.295E+00
DAV:   4    -0.848609922988E+02    0.52731E-01   -0.72777E-02   944   0.170E+00    0.165E+00
DAV:   5    -0.848492929930E+02    0.11699E-01   -0.30196E-02   880   0.650E-01    0.629E-01
DAV:   6    -0.848503054118E+02   -0.10124E-02   -0.11623E-02   848   0.311E-01    0.107E+00
DAV:   7    -0.848743450902E+02   -0.24040E-01   -0.39176E-02  1096   0.930E-01    0.232E+00
DAV:   8    -0.848474650356E+02    0.26880E-01   -0.98097E-02  1096   0.119E+00    0.270E-01
DAV:   9    -0.848472218085E+02    0.24323E-03   -0.54982E-03   824   0.268E-01    0.351E-01
DAV:  10    -0.848468692921E+02    0.35252E-03   -0.89296E-04   696   0.793E-02    0.229E-01
DAV:  11    -0.848467096483E+02    0.15964E-03   -0.26506E-04   464   0.552E-02    0.207E-01
DAV:  12    -0.848467024828E+02    0.71655E-05   -0.19121E-04   408   0.390E-02
   8 F= -.84846702E+02 E0= -.84830497E+02  d E =0.643943E-02
 curvature:  -1.89 expect dE=-0.242E-01 dE for cont linesearch -0.110E-02
 ZBRENT: interpolating
 opt :   2.0887  next Energy=   -84.847540 (dE= 0.560E-02)
 bond charge predicted
       N       E                     dE             d eps       ncg     rms          rms(c)
DAV:   1    -0.848496835034E+02   -0.29739E-02   -0.13219E+00   768   0.294E+00    0.329E-01
DAV:   2    -0.848750682849E+02   -0.25385E-01   -0.16511E-01   872   0.115E+00    0.225E+00
DAV:   3    -0.848774520803E+02   -0.23838E-02   -0.45768E-01  1000   0.194E+00    0.241E+00
DAV:   4    -0.848589917021E+02    0.18460E-01   -0.20584E-02   856   0.602E-01    0.133E+00
DAV:   5    -0.848511019345E+02    0.78898E-02   -0.24012E-02   928   0.594E-01    0.282E-01
DAV:   6    -0.848577956320E+02   -0.66937E-02   -0.21753E-02   968   0.598E-01    0.123E+00
DAV:   7    -0.848517660717E+02    0.60296E-02   -0.14903E-02   784   0.393E-01    0.388E-01
DAV:   8    -0.848508849211E+02    0.88115E-03   -0.19861E-03   736   0.220E-01    0.104E-01
DAV:   9    -0.848509826732E+02   -0.97752E-04   -0.22798E-04   480   0.605E-02
   9 F= -.84850983E+02 E0= -.84834674E+02  d E =0.215924E-02
 curvature:  -1.43 expect dE=-0.165E-01 dE for cont linesearch -0.511E-04
 trial: gam= 0.55636 g(F)=  0.115E-01 g(S)=  0.000E+00 ort = 0.104E-02 (trialstep = 0.149E+01)
 search vector abs. value=  0.221E-01
 bond charge predicted
       N       E                     dE             d eps       ncg     rms          rms(c)
DAV:   1    -0.848319633458E+02    0.18922E-01   -0.13228E+01   768   0.916E+00    0.480E-01
DAV:   2    -0.849395889423E+02   -0.10763E+00   -0.53076E-01   824   0.268E+00    0.418E+00
DAV:   3    -0.848568914564E+02    0.82697E-01   -0.12262E-01   848   0.154E+00    0.934E-01
DAV:   4    -0.848492890287E+02    0.76024E-02   -0.40547E-02   872   0.101E+00    0.761E-01
DAV:   5    -0.848480197375E+02    0.12693E-02   -0.51095E-03   816   0.267E-01    0.521E-01
DAV:   6    -0.848572997113E+02   -0.92800E-02   -0.54058E-02  1088   0.887E-01    0.161E+00
DAV:   7    -0.848490768752E+02    0.82228E-02   -0.37135E-02   872   0.458E-01    0.507E-01
DAV:   8    -0.848475523851E+02    0.15245E-02   -0.39285E-02   952   0.722E-01    0.746E-01
DAV:   9    -0.848462769485E+02    0.12754E-02   -0.29343E-02   920   0.552E-01    0.446E-01
DAV:  10    -0.848451440092E+02    0.11329E-02   -0.47211E-03   728   0.202E-01    0.978E-02
DAV:  11    -0.848450682811E+02    0.75728E-04   -0.21550E-04   472   0.716E-02
  10 F= -.84845068E+02 E0= -.84829096E+02  d E =0.591439E-02
 trial-energy change:    0.005914  1 .order   -0.010800   -0.018082   -0.003517
 step:   1.8521(harm=  1.8521)  dis= 0.02064  next Energy=   -84.862207 (dE=-0.112E-01)
 bond charge predicted
       N       E                     dE             d eps       ncg     rms          rms(c)
DAV:   1    -0.848418107656E+02    0.33332E-02   -0.76857E-01   768   0.220E+00    0.157E-01
DAV:   2    -0.848432139373E+02   -0.14032E-02   -0.11948E-02   808   0.408E-01    0.188E-01
DAV:   3    -0.848443393587E+02   -0.11254E-02   -0.10236E-02   888   0.471E-01    0.519E-01
DAV:   4    -0.848433447558E+02    0.99460E-03   -0.15047E-02   776   0.356E-01    0.428E-01
DAV:   5    -0.848428940159E+02    0.45074E-03   -0.29856E-03   544   0.170E-01    0.140E-01
DAV:   6    -0.848440109666E+02   -0.11170E-02   -0.62003E-03   616   0.310E-01    0.554E-01
DAV:   7    -0.848426911568E+02    0.13198E-02   -0.99028E-03   680   0.273E-01    0.728E-02
DAV:   8    -0.848427230139E+02   -0.31857E-04   -0.62901E-04   464   0.669E-02
  11 F= -.84842723E+02 E0= -.84826813E+02  d E =0.825966E-02
 curvature:  -1.69 expect dE=-0.664E-02 dE for cont linesearch -0.118E-02
 ZBRENT: increasing intervall
 opt :   2.5726  next Energy=   -84.846695 (dE= 0.429E-02)
 bond charge predicted
       N       E                     dE             d eps       ncg     rms          rms(c)
DAV:   1    -0.848363957553E+02    0.62954E-02   -0.30768E+00   768   0.440E+00    0.265E-01
DAV:   2    -0.848426671089E+02   -0.62714E-02   -0.54897E-02   816   0.786E-01    0.747E-01
DAV:   3    -0.848545264438E+02   -0.11859E-01   -0.16670E-01   896   0.100E+00    0.184E+00
DAV:   4    -0.848411254035E+02    0.13401E-01   -0.71379E-02   904   0.737E-01    0.418E-01
DAV:   5    -0.848401256446E+02    0.99976E-03   -0.12596E-03   816   0.171E-01    0.262E-01
DAV:   6    -0.848441433590E+02   -0.40177E-02   -0.20219E-02   848   0.504E-01    0.970E-01
DAV:   7    -0.848405008986E+02    0.36425E-02   -0.14231E-02   864   0.347E-01    0.312E-01
DAV:   8    -0.848396667756E+02    0.83412E-03   -0.48314E-03   776   0.261E-01    0.133E-01
DAV:   9    -0.848396717810E+02   -0.50054E-05   -0.88933E-04   528   0.856E-02
  12 F= -.84839672E+02 E0= -.84823992E+02  d E =0.113109E-01
 curvature:  -5.66 expect dE=-0.273E-01 dE for cont linesearch -0.561E-02
 ZBRENT: increasing intervall
 opt :   4.0138  next Energy=   -84.847474 (dE= 0.351E-02)
 bond charge predicted
       N       E                     dE             d eps       ncg     rms          rms(c)
DAV:   1    -0.848231323251E+02    0.16534E-01   -0.12299E+01   768   0.878E+00    0.529E-01
DAV:   2    -0.848516192527E+02   -0.28487E-01   -0.19855E-01   816   0.173E+00    0.123E+00
DAV:   3    -0.848769728321E+02   -0.25354E-01   -0.53180E-01   912   0.185E+00    0.312E+00
DAV:   4    -0.848472952571E+02    0.29678E-01   -0.31761E-01   928   0.178E+00    0.149E+00
DAV:   5    -0.848386194084E+02    0.86758E-02   -0.29928E-02   888   0.483E-01    0.657E-01
DAV:   6    -0.848511734378E+02   -0.12554E-01   -0.52240E-02  1112   0.792E-01    0.176E+00
DAV:   7    -0.848386233617E+02    0.12550E-01   -0.15967E-01  1120   0.111E+00    0.649E-01
DAV:   8    -0.848370750721E+02    0.15483E-02   -0.34182E-02   912   0.517E-01    0.424E-01
DAV:   9    -0.848365883680E+02    0.48670E-03   -0.13047E-03   696   0.923E-02    0.287E-01
DAV:  10    -0.848361748859E+02    0.41348E-03   -0.11280E-03   464   0.112E-01    0.106E-01
DAV:  11    -0.848361705368E+02    0.43491E-05   -0.60370E-04   472   0.907E-02
  13 F= -.84836171E+02 E0= -.84820896E+02  d E =0.148121E-01
 curvature:  -7.89 expect dE=-0.110E+00 dE for cont linesearch -0.142E-01
 ZBRENT: increasing intervall
 opt :   6.8960  next Energy=   -84.859102 (dE=-0.812E-02)
 bond charge predicted
       N       E                     dE             d eps       ncg     rms          rms(c)
DAV:   1    -0.847998367161E+02    0.36338E-01   -0.49546E+01   768   0.176E+01    0.932E-01
DAV:   2    -0.850146132651E+02   -0.21478E+00   -0.14477E+00   824   0.403E+00    0.522E+00
DAV:   3    -0.848790943148E+02    0.13552E+00   -0.19560E-01   840   0.213E+00    0.117E+00
DAV:   4    -0.848771911076E+02    0.19032E-02   -0.20357E-01   904   0.182E+00    0.221E+00
DAV:   5    -0.848603578457E+02    0.16833E-01   -0.49083E-02   864   0.626E-01    0.126E+00
DAV:   6    -0.849014893759E+02   -0.41132E-01   -0.15080E-01  1072   0.141E+00    0.303E+00
DAV:   7    -0.848584765485E+02    0.43013E-01   -0.34618E-01  1000   0.170E+00    0.860E-01
DAV:   8    -0.848621265147E+02   -0.36500E-02   -0.11674E-01   856   0.842E-01    0.148E+00
DAV:   9    -0.848515180326E+02    0.10608E-01   -0.49281E-02   896   0.504E-01    0.323E-01
DAV:  10    -0.848502666930E+02    0.12513E-02   -0.21406E-03   872   0.214E-01    0.184E-01
DAV:  11    -0.848502606674E+02    0.60257E-05   -0.23620E-03   776   0.107E-01    0.326E-01
DAV:  12    -0.848499937544E+02    0.26691E-03   -0.42103E-04   464   0.577E-02    0.241E-01
DAV:  13    -0.848498402650E+02    0.15349E-03   -0.29937E-04   456   0.503E-02    0.166E-01
DAV:  14    -0.848497977350E+02    0.42530E-04   -0.14075E-04   384   0.330E-02
  14 F= -.84849798E+02 E0= -.84835136E+02  d E =0.118494E-02
 curvature: -12.70 expect dE=-0.205E+00 dE for cont linesearch -0.405E-01
 ZBRENT: increasing intervall
 opt :  12.6606  next Energy=   -84.910206 (dE=-0.592E-01)
 bond charge predicted
       N       E                     dE             d eps       ncg     rms          rms(c)
DAV:   1    -0.845643289627E+02    0.28551E+00   -0.20066E+02   768   0.352E+01    0.162E+00
DAV:   2    -0.849355593971E+02   -0.37123E+00   -0.29711E+00   816   0.598E+00    0.491E+00
DAV:   3    -0.848705429098E+02    0.65016E-01   -0.19286E+00   864   0.330E+00    0.428E+00
DAV:   4    -0.848577035694E+02    0.12839E-01   -0.17316E+00   872   0.338E+00    0.359E+00
DAV:   5    -0.848126657156E+02    0.45038E-01   -0.10461E-01   832   0.921E-01    0.256E+00
DAV:   6    -0.849078406950E+02   -0.95175E-01   -0.34621E-01  1112   0.197E+00    0.453E+00
DAV:   7    -0.847933771290E+02    0.11446E+00   -0.13811E+00  1096   0.353E+00    0.209E+00
DAV:   8    -0.848055408807E+02   -0.12164E-01   -0.84655E-01   888   0.231E+00    0.292E+00
DAV:   9    -0.847661423560E+02    0.39399E-01   -0.25580E-01   888   0.116E+00    0.379E-01
DAV:  10    -0.847641041898E+02    0.20382E-02   -0.39037E-03   928   0.289E-01    0.326E-01
DAV:  11    -0.847634537529E+02    0.65044E-03   -0.57460E-03   816   0.212E-01    0.489E-01
DAV:  12    -0.847629371929E+02    0.51656E-03   -0.19612E-03   864   0.137E-01    0.431E-01
DAV:  13    -0.847623225009E+02    0.61469E-03   -0.20271E-03   632   0.119E-01    0.188E-01
DAV:  14    -0.847623055725E+02    0.16928E-04   -0.23397E-04   424   0.482E-02
  15 F= -.84762306E+02 E0= -.84749184E+02  d E =0.886771E-01
 curvature: -18.92 expect dE=-0.965E+00 dE for cont linesearch -0.243E+00
 ZBRENT: bracketing found
 ZBRENT: interpolating
 opt :   8.8151  next Energy=   -84.857855 (dE=-0.687E-02)
 bond charge predicted
       N       E                     dE             d eps       ncg     rms          rms(c)
DAV:   1    -0.847549100037E+02    0.74125E-02   -0.88760E+01   768   0.231E+01    0.128E+00
DAV:   2    -0.855015483946E+02   -0.74664E+00   -0.50752E+00   832   0.724E+00    0.899E+00
DAV:   3    -0.849185351303E+02    0.58301E+00   -0.70060E-01   856   0.480E+00    0.210E+00
DAV:   4    -0.849041514058E+02    0.14384E-01   -0.21721E-01   832   0.272E+00    0.308E+00
DAV:   5    -0.848807234831E+02    0.23428E-01   -0.35178E-02   824   0.664E-01    0.210E+00
DAV:   6    -0.848538076201E+02    0.26916E-01   -0.15981E-01  1016   0.150E+00    0.780E-01
DAV:   7    -0.848747155595E+02   -0.20908E-01   -0.28011E-01   968   0.135E+00    0.275E+00
DAV:   8    -0.849009049666E+02   -0.26189E-01   -0.27326E-02   904   0.113E+00    0.271E+00
DAV:   9    -0.848569195406E+02    0.43985E-01   -0.54771E-02   888   0.108E+00    0.103E+00
DAV:  10    -0.848481950931E+02    0.87244E-02   -0.17425E-02   880   0.591E-01    0.532E-01
DAV:  11    -0.848468732008E+02    0.13219E-02   -0.36911E-03   872   0.212E-01    0.402E-01
DAV:  12    -0.848459463112E+02    0.92689E-03   -0.11544E-03   608   0.147E-01    0.287E-01
DAV:  13    -0.848453525823E+02    0.59373E-03   -0.11989E-03   776   0.134E-01    0.159E-01
DAV:  14    -0.848452860854E+02    0.66497E-04   -0.15107E-04   464   0.423E-02
  16 F= -.84845286E+02 E0= -.84830926E+02  d E =0.569659E-02
 curvature:  -0.63 expect dE=-0.464E-02 dE for cont linesearch -0.446E-04
 trial: gam= 0.40246 g(F)=  0.737E-02 g(S)=  0.000E+00 ort =-0.125E-02 (trialstep = 0.296E+01)
 search vector abs. value=  0.994E-02
 bond charge predicted
       N       E                     dE             d eps       ncg     rms          rms(c)
DAV:   1    -0.848267832439E+02    0.18569E-01   -0.22766E+01   768   0.122E+01    0.467E-01
DAV:   2    -0.848576308661E+02   -0.30848E-01   -0.28474E-01   816   0.190E+00    0.103E+00
DAV:   3    -0.848560588064E+02    0.15721E-02   -0.12387E-02   848   0.359E-01    0.737E-01
DAV:   4    -0.848681333405E+02   -0.12075E-01   -0.78509E-02   920   0.672E-01    0.216E+00
DAV:   5    -0.848573280306E+02    0.10805E-01   -0.32415E-02   888   0.475E-01    0.118E+00
DAV:   6    -0.848637286433E+02   -0.64006E-02   -0.12458E-02   816   0.339E-01    0.167E+00
DAV:   7    -0.848606957037E+02    0.30329E-02   -0.29412E-01  1168   0.147E+00    0.138E+00
DAV:   8    -0.848522782555E+02    0.84174E-02   -0.41355E-02   832   0.481E-01    0.559E-01
DAV:   9    -0.848507826783E+02    0.14956E-02   -0.11769E-02   832   0.309E-01    0.351E-01
DAV:  10    -0.848506301319E+02    0.15255E-03   -0.61076E-04   696   0.807E-02    0.306E-01
DAV:  11    -0.848505052067E+02    0.12493E-03   -0.33344E-04   448   0.658E-02    0.256E-01
DAV:  12    -0.848505498918E+02   -0.44685E-04   -0.32049E-04   456   0.588E-02
  17 F= -.84850550E+02 E0= -.84836695E+02  d E =-.526381E-02
 trial-energy change:   -0.005264  1 .order   -0.012125   -0.020312   -0.003938
 step:   3.6676(harm=  3.6676)  dis= 0.01597  next Energy=   -84.857885 (dE=-0.126E-01)
 bond charge predicted
       N       E                     dE             d eps       ncg     rms          rms(c)
DAV:   1    -0.848473684631E+02    0.31367E-02   -0.13163E+00   768   0.293E+00    0.337E-01
DAV:   2    -0.848939822061E+02   -0.46614E-01   -0.37060E-01   992   0.142E+00    0.313E+00
DAV:   3    -0.848643241427E+02    0.29658E-01   -0.67213E-01  1064   0.199E+00    0.185E+00
DAV:   4    -0.848537372965E+02    0.10587E-01   -0.49030E-02   856   0.510E-01    0.844E-01
DAV:   5    -0.848494988429E+02    0.42385E-02   -0.55232E-03   816   0.325E-01    0.395E-01
DAV:   6    -0.848494373373E+02    0.61506E-04   -0.56482E-04   728   0.828E-02
  18 F= -.84849437E+02 E0= -.84836082E+02  d E =-.415125E-02
 curvature:  -2.65 expect dE=-0.100E-01 dE for cont linesearch -0.182E-05
 trial: gam= 0.44489 g(F)=  0.377E-02 g(S)=  0.000E+00 ort = 0.826E-04 (trialstep = 0.310E+01)
 search vector abs. value=  0.581E-02
 bond charge predicted
       N       E                     dE             d eps       ncg     rms          rms(c)
DAV:   1    -0.848491937503E+02    0.30509E-03   -0.14641E+01   768   0.989E+00    0.443E-01
DAV:   2    -0.851159258792E+02   -0.26673E+00   -0.18493E+00   912   0.373E+00    0.631E+00
DAV:   3    -0.848739324287E+02    0.24199E+00   -0.38823E-01   880   0.285E+00    0.890E-01
DAV:   4    -0.848748631255E+02   -0.93070E-03   -0.32404E-02   856   0.717E-01    0.134E+00
DAV:   5    -0.848729071593E+02    0.19560E-02   -0.24356E-03   864   0.197E-01    0.114E+00
DAV:   6    -0.848676477258E+02    0.52594E-02   -0.97089E-02  1104   0.934E-01    0.819E-01
DAV:   7    -0.848658528186E+02    0.17949E-02   -0.68931E-03   816   0.162E-01    0.456E-01
DAV:   8    -0.848664580046E+02   -0.60519E-03   -0.39798E-02   952   0.556E-01    0.828E-01
DAV:   9    -0.848655198271E+02    0.93818E-03   -0.56860E-03   848   0.242E-01    0.511E-01
DAV:  10    -0.848639007082E+02    0.16191E-02   -0.14738E-02   880   0.325E-01    0.229E-01
DAV:  11    -0.848638001099E+02    0.10060E-03   -0.41556E-04   560   0.956E-02    0.149E-01
DAV:  12    -0.848637366726E+02    0.63437E-04   -0.23470E-04   408   0.415E-02
  19 F= -.84863737E+02 E0= -.84849389E+02  d E =-.142993E-01
 trial-energy change:   -0.014299  1 .order   -0.008983   -0.011798   -0.006169
 step:   3.5518(harm=  6.4947)  dis= 0.01233  next Energy=   -84.864204 (dE=-0.148E-01)
 bond charge predicted
       N       E                     dE             d eps       ncg     rms          rms(c)
DAV:   1    -0.848648255165E+02   -0.10254E-02   -0.31224E-01   768   0.144E+00    0.106E-01
DAV:   2    -0.848662501409E+02   -0.14246E-02   -0.11323E-02   840   0.314E-01    0.494E-01
DAV:   3    -0.848671872379E+02   -0.93710E-03   -0.40894E-02   952   0.464E-01    0.693E-01
DAV:   4    -0.848654157572E+02    0.17715E-02   -0.16024E-02   840   0.314E-01    0.185E-01
DAV:   5    -0.848652517537E+02    0.16400E-03   -0.19086E-04   472   0.731E-02    0.115E-01
DAV:   6    -0.848656778349E+02   -0.42608E-03   -0.39474E-03   552   0.187E-01    0.314E-01
DAV:   7    -0.848651588397E+02    0.51900E-03   -0.30539E-03   536   0.155E-01    0.263E-02
DAV:   8    -0.848651843141E+02   -0.25474E-04   -0.95217E-05   456   0.341E-02
  20 F= -.84865184E+02 E0= -.84850901E+02  d E =-.157470E-01
 curvature:  -1.23 expect dE=-0.509E-02 dE for cont linesearch -0.539E-03
 ZBRENT: increasing intervall
 opt :   4.4579  next Energy=   -84.866267 (dE=-0.168E-01)
 bond charge predicted
       N       E                     dE             d eps       ncg     rms          rms(c)
DAV:   1    -0.848655679011E+02   -0.40906E-03   -0.12505E+00   768   0.288E+00    0.134E-01
DAV:   2    -0.848767399988E+02   -0.11172E-01   -0.89931E-02   848   0.795E-01    0.150E+00
DAV:   3    -0.848674726124E+02    0.92674E-02   -0.53989E-02   840   0.529E-01    0.229E-01
DAV:   4    -0.848672622968E+02    0.21032E-03   -0.44325E-03   840   0.294E-01    0.250E-01
DAV:   5    -0.848671499884E+02    0.11231E-03   -0.29738E-04   536   0.731E-02    0.195E-01
DAV:   6    -0.848678666854E+02   -0.71670E-03   -0.98745E-03   672   0.269E-01    0.478E-01
DAV:   7    -0.848669376106E+02    0.92907E-03   -0.11630E-02   656   0.288E-01    0.127E-01
DAV:   8    -0.848669161859E+02    0.21425E-04   -0.25046E-03   640   0.146E-01    0.107E-01
DAV:   9    -0.848668620808E+02    0.54105E-04   -0.24543E-04   432   0.466E-02
  21 F= -.84866862E+02 E0= -.84852375E+02  d E =-.174247E-01
 curvature:  -2.48 expect dE=-0.109E-01 dE for cont linesearch -0.201E-04
 trial: gam= 0.90046 g(F)=  0.439E-02 g(S)=  0.000E+00 ort = 0.217E-03 (trialstep = 0.206E+01)
 search vector abs. value=  0.950E-02
 bond charge predicted
       N       E                     dE             d eps       ncg     rms          rms(c)
DAV:   1    -0.848646929673E+02    0.22232E-02   -0.10733E+01   768   0.834E+00    0.452E-01
DAV:   2    -0.848891135815E+02   -0.24421E-01   -0.18638E-01   816   0.154E+00    0.138E+00
DAV:   3    -0.849054552804E+02   -0.16342E-01   -0.35046E-01   896   0.172E+00    0.251E+00
DAV:   4    -0.848809920264E+02    0.24463E-01   -0.22885E-01   912   0.126E+00    0.779E-01
DAV:   5    -0.848782988533E+02    0.26932E-02   -0.50409E-03   872   0.212E-01    0.554E-01
DAV:   6    -0.848758414048E+02    0.24574E-02   -0.68422E-03   832   0.392E-01    0.179E-01
DAV:   7    -0.848799331984E+02   -0.40918E-02   -0.35513E-02   944   0.509E-01    0.945E-01
DAV:   8    -0.848759315911E+02    0.40016E-02   -0.34560E-02   976   0.593E-01    0.213E-01
DAV:   9    -0.848757560758E+02    0.17552E-03   -0.51438E-03   696   0.179E-01    0.161E-01
DAV:  10    -0.848757254994E+02    0.30576E-04   -0.99700E-05   472   0.428E-02
  22 F= -.84875725E+02 E0= -.84861102E+02  d E =-.886342E-02
 trial-energy change:   -0.008863  1 .order   -0.005697   -0.009467   -0.001928
 step:   2.2054(harm=  2.5900)  dis= 0.01106  next Energy=   -84.875793 (dE=-0.893E-02)
 bond charge predicted
       N       E                     dE             d eps       ncg     rms          rms(c)
DAV:   1    -0.848757795573E+02   -0.23482E-04   -0.51322E-02   768   0.577E-01    0.104E-01
DAV:   2    -0.848885212842E+02   -0.12742E-01   -0.10027E-01  1064   0.729E-01    0.172E+00
DAV:   3    -0.848765772288E+02    0.11944E-01   -0.11188E-01  1112   0.790E-01    0.321E-01
DAV:   4    -0.848758663357E+02    0.71089E-03   -0.33657E-03   576   0.116E-01    0.583E-02
DAV:   5    -0.848758592241E+02    0.71116E-05   -0.13272E-04   456   0.372E-02
  23 F= -.84875859E+02 E0= -.84861156E+02  d E =-.899714E-02
 curvature:  -1.25 expect dE=-0.642E-02 dE for cont linesearch -0.677E-04
 trial: gam= 1.08406 g(F)=  0.512E-02 g(S)=  0.000E+00 ort = 0.716E-03 (trialstep = 0.111E+01)
 search vector abs. value=  0.178E-01
 bond charge predicted
       N       E                     dE             d eps       ncg     rms          rms(c)
DAV:   1    -0.848700303312E+02    0.58360E-02   -0.59555E+00   768   0.598E+00    0.363E-01
DAV:   2    -0.848813210561E+02   -0.11291E-01   -0.88702E-02   832   0.113E+00    0.622E-01
DAV:   3    -0.848913889119E+02   -0.10068E-01   -0.99022E-02   912   0.120E+00    0.183E+00
DAV:   4    -0.848868183650E+02    0.45705E-02   -0.29891E-01  1032   0.128E+00    0.166E+00
DAV:   5    -0.848787088425E+02    0.81095E-02   -0.16577E-02   864   0.364E-01    0.815E-01
DAV:   6    -0.848889497808E+02   -0.10241E-01   -0.32158E-02  1000   0.539E-01    0.169E+00
DAV:   7    -0.848772015481E+02    0.11748E-01   -0.10018E-01  1112   0.944E-01    0.364E-01
DAV:   8    -0.848768628196E+02    0.33873E-03   -0.19588E-02   896   0.345E-01    0.368E-01
DAV:   9    -0.848764452263E+02    0.41759E-03   -0.67756E-04   496   0.687E-02    0.240E-01
DAV:  10    -0.848761071033E+02    0.33812E-03   -0.12904E-03   520   0.130E-01    0.514E-02
DAV:  11    -0.848761343250E+02   -0.27222E-04   -0.94589E-05   432   0.326E-02
  24 F= -.84876134E+02 E0= -.84861404E+02  d E =-.275101E-03
 trial-energy change:   -0.000275  1 .order   -0.001357   -0.006566    0.003852
 step:   0.5289(harm=  0.7019)  dis= 0.00253  next Energy=   -84.877302 (dE=-0.144E-02)
 bond charge predicted
       N       E                     dE             d eps       ncg     rms          rms(c)
DAV:   1    -0.848759734300E+02    0.13367E-03   -0.16427E+00   768   0.316E+00    0.165E-01
DAV:   2    -0.848963648102E+02   -0.20391E-01   -0.13876E-01   864   0.109E+00    0.200E+00
DAV:   3    -0.848825736953E+02    0.13791E-01   -0.39097E-02   832   0.493E-01    0.844E-01
DAV:   4    -0.848782517366E+02    0.43220E-02   -0.11939E-02   880   0.441E-01    0.408E-01
DAV:   5    -0.848777149710E+02    0.53677E-03   -0.22875E-03   808   0.145E-01    0.188E-01
DAV:   6    -0.848790959590E+02   -0.13810E-02   -0.71378E-03   552   0.243E-01    0.601E-01
DAV:   7    -0.848776480543E+02    0.14479E-02   -0.13138E-02   736   0.298E-01    0.120E-01
DAV:   8    -0.848777182506E+02   -0.70196E-04   -0.26761E-03   744   0.160E-01    0.189E-01
DAV:   9    -0.848775462138E+02    0.17204E-03   -0.48769E-04   464   0.796E-02    0.954E-02
DAV:  10    -0.848775235837E+02    0.22630E-04   -0.15913E-04   440   0.392E-02
  25 F= -.84877524E+02 E0= -.84862791E+02  d E =-.166436E-02
 curvature:  -0.87 expect dE=-0.289E-02 dE for cont linesearch -0.178E-03
 ZBRENT: interpolating
 opt :   0.7367  next Energy=   -84.877722 (dE=-0.186E-02)
 bond charge predicted
       N       E                     dE             d eps       ncg     rms          rms(c)
DAV:   1    -0.848772657596E+02    0.28045E-03   -0.20769E-01   768   0.112E+00    0.642E-02
DAV:   2    -0.848821019762E+02   -0.48362E-02   -0.35562E-02   840   0.505E-01    0.102E+00
DAV:   3    -0.848778564651E+02    0.42455E-02   -0.17242E-02   832   0.346E-01    0.203E-01
DAV:   4    -0.848774655605E+02    0.39090E-03   -0.92922E-04   664   0.162E-01    0.861E-02
DAV:   5    -0.848774753546E+02   -0.97942E-05   -0.22580E-04   496   0.480E-02
  26 F= -.84877475E+02 E0= -.84862688E+02  d E =-.161613E-02
 curvature:  -0.97 expect dE=-0.372E-02 dE for cont linesearch -0.536E-05
 trial: gam= 0.30508 g(F)=  0.383E-02 g(S)=  0.000E+00 ort = 0.314E-03 (trialstep = 0.104E+01)
 search vector abs. value=  0.568E-02
 bond charge predicted
       N       E                     dE             d eps       ncg     rms          rms(c)
DAV:   1    -0.848774186939E+02    0.46867E-04   -0.16162E+00   768   0.319E+00    0.250E-01
DAV:   2    -0.849189360523E+02   -0.41517E-01   -0.33956E-01   912   0.137E+00    0.297E+00
DAV:   3    -0.848888668093E+02    0.30069E-01   -0.51662E-01  1024   0.176E+00    0.138E+00
DAV:   4    -0.848813136087E+02    0.75532E-02   -0.17238E-02   864   0.375E-01    0.648E-01
DAV:   5    -0.848791896705E+02    0.21239E-02   -0.70094E-03   768   0.302E-01    0.213E-01
DAV:   6    -0.848801716459E+02   -0.98198E-03   -0.49008E-03   632   0.195E-01    0.521E-01
DAV:   7    -0.848789715473E+02    0.12001E-02   -0.62066E-03   696   0.259E-01    0.533E-02
DAV:   8    -0.848791488302E+02   -0.17728E-03   -0.15384E-03   456   0.124E-01    0.182E-01
DAV:   9    -0.848790615509E+02    0.87279E-04   -0.15344E-04   424   0.346E-02
  27 F= -.84879062E+02 E0= -.84864401E+02  d E =-.158620E-02
 trial-energy change:   -0.001586  1 .order   -0.003256   -0.004079   -0.002433
 step:   2.5730(harm=  2.5730)  dis= 0.00771  next Energy=   -84.882529 (dE=-0.505E-02)
 bond charge predicted
       N       E                     dE             d eps       ncg     rms          rms(c)
DAV:   1    -0.848721396682E+02    0.70092E-02   -0.35265E+00   768   0.472E+00    0.221E-01
DAV:   2    -0.848772272410E+02   -0.50876E-02   -0.45587E-02   824   0.773E-01    0.375E-01
DAV:   3    -0.848767774448E+02    0.44980E-03   -0.10024E-02   880   0.317E-01    0.402E-01
DAV:   4    -0.848800216083E+02   -0.32442E-02   -0.50734E-02   920   0.449E-01    0.108E+00
DAV:   5    -0.848788365007E+02    0.11851E-02   -0.20036E-03   776   0.170E-01    0.851E-01
DAV:   6    -0.848801741109E+02   -0.13376E-02   -0.11458E-03   552   0.141E-01    0.101E+00
DAV:   7    -0.848768304739E+02    0.33436E-02   -0.46867E-02   960   0.634E-01    0.412E-01
DAV:   8    -0.848760723801E+02    0.75809E-03   -0.86627E-03   848   0.238E-01    0.104E-01
DAV:   9    -0.848760308130E+02    0.41567E-04   -0.16750E-04   488   0.444E-02
  28 F= -.84876031E+02 E0= -.84861408E+02  d E =0.144454E-02
 curvature:  -1.86 expect dE=-0.186E-01 dE for cont linesearch -0.208E-02
 ZBRENT: interpolating
 opt :   1.7774  next Energy=   -84.879927 (dE=-0.245E-02)
 bond charge predicted
       N       E                     dE             d eps       ncg     rms          rms(c)
DAV:   1    -0.848777252380E+02   -0.16529E-02   -0.94987E-01   768   0.246E+00    0.102E-01
DAV:   2    -0.849006914029E+02   -0.22966E-01   -0.16043E-01   968   0.111E+00    0.219E+00
DAV:   3    -0.848827213328E+02    0.17970E-01   -0.55590E-02   864   0.574E-01    0.776E-01
DAV:   4    -0.848787372678E+02    0.39841E-02   -0.10480E-02   896   0.369E-01    0.217E-01
DAV:   5    -0.848787123687E+02    0.24899E-04   -0.51328E-04   744   0.840E-02
  29 F= -.84878712E+02 E0= -.84863901E+02  d E =-.123701E-02
 curvature:  -0.77 expect dE=-0.324E-02 dE for cont linesearch -0.507E-05
 trial: gam= 0.88227 g(F)=  0.418E-02 g(S)=  0.000E+00 ort =-0.193E-03 (trialstep = 0.816E+00)
 search vector abs. value=  0.826E-02
 bond charge predicted
       N       E                     dE             d eps       ncg     rms          rms(c)
DAV:   1    -0.848783428500E+02    0.39442E-03   -0.14431E+00   768   0.295E+00    0.510E-01
DAV:   2    -0.853136546595E+02   -0.43531E+00   -0.25393E+00  1112   0.458E+00    0.789E+00
DAV:   3    -0.848908825507E+02    0.42277E+00   -0.31880E-01  1168   0.467E+00    0.107E+00
DAV:   4    -0.848813300917E+02    0.95525E-02   -0.31968E-02   848   0.462E-01    0.570E-01
DAV:   5    -0.848791843937E+02    0.21457E-02   -0.88601E-03   880   0.335E-01    0.136E-01
DAV:   6    -0.848792769473E+02   -0.92554E-04   -0.20285E-03   720   0.193E-01    0.183E-01
DAV:   7    -0.848793423156E+02   -0.65368E-04   -0.52168E-03   632   0.248E-01    0.293E-01
DAV:   8    -0.848793047956E+02    0.37520E-04   -0.39027E-04   480   0.689E-02
  30 F= -.84879305E+02 E0= -.84864651E+02  d E =-.592427E-03
 trial-energy change:   -0.000592  1 .order   -0.002647   -0.003272   -0.002022
 step:   2.1355(harm=  2.1355)  dis= 0.00621  next Energy=   -84.882995 (dE=-0.428E-02)
 bond charge predicted
       N       E                     dE             d eps       ncg     rms          rms(c)
DAV:   1    -0.848725624023E+02    0.67799E-02   -0.37675E+00   768   0.475E+00    0.200E-01
DAV:   2    -0.848781067159E+02   -0.55443E-02   -0.49835E-02   808   0.769E-01    0.504E-01
DAV:   3    -0.848827432009E+02   -0.46365E-02   -0.51314E-02   872   0.660E-01    0.125E+00
DAV:   4    -0.848778978640E+02    0.48453E-02   -0.13801E-02   840   0.303E-01    0.522E-01
DAV:   5    -0.848777060861E+02    0.19178E-03   -0.66156E-04   584   0.127E-01    0.558E-01
DAV:   6    -0.848780275759E+02   -0.32149E-03   -0.40568E-04   464   0.846E-02    0.602E-01
DAV:   7    -0.848770761386E+02    0.95144E-03   -0.20597E-02   888   0.405E-01    0.370E-01
DAV:   8    -0.848769724795E+02    0.10366E-03   -0.97936E-03   768   0.304E-01    0.322E-01
DAV:   9    -0.848765373670E+02    0.43511E-03   -0.78184E-04   456   0.905E-02    0.147E-01
DAV:  10    -0.848764983629E+02    0.39004E-04   -0.56715E-05   408   0.289E-02
  31 F= -.84876498E+02 E0= -.84861715E+02  d E =0.221401E-02
 curvature:  -2.20 expect dE=-0.785E-02 dE for cont linesearch -0.196E-05
 trial: gam= 0.69705 g(F)=  0.357E-02 g(S)=  0.000E+00 ort =-0.857E-04 (trialstep = 0.108E+01)
 search vector abs. value=  0.746E-02
 bond charge predicted
       N       E                     dE             d eps       ncg     rms          rms(c)
DAV:   1    -0.848734436535E+02    0.30937E-02   -0.22964E+00   768   0.379E+00    0.182E-01
DAV:   2    -0.848802142670E+02   -0.67706E-02   -0.50646E-02   808   0.691E-01    0.109E+00
DAV:   3    -0.848833971729E+02   -0.31829E-02   -0.10378E-01   928   0.905E-01    0.131E+00
DAV:   4    -0.848767069431E+02    0.66902E-02   -0.33210E-02   928   0.463E-01    0.354E-01
DAV:   5    -0.848763979273E+02    0.30902E-03   -0.63360E-04   640   0.120E-01    0.384E-01
DAV:   6    -0.848782674902E+02   -0.18696E-02   -0.32722E-03   568   0.224E-01    0.740E-01
DAV:   7    -0.848763278199E+02    0.19397E-02   -0.54711E-03   816   0.212E-01    0.244E-01
DAV:   8    -0.848759094052E+02    0.41841E-03   -0.24380E-03   592   0.202E-01    0.856E-02
DAV:   9    -0.848759338227E+02   -0.24417E-04   -0.39254E-04   480   0.622E-02
  32 F= -.84875934E+02 E0= -.84861234E+02  d E =0.564540E-03
 ZBRENT: can't locate minimum, use default step
 trial-energy change:    0.000565  1 .order   -0.003391   -0.003788   -0.002994
 step:   4.3188(harm=  5.1504)  dis= 0.01903  next Energy=   -84.885533 (dE=-0.903E-02)
 bond charge predicted
       N       E                     dE             d eps       ncg     rms          rms(c)
DAV:   1    -0.848473010207E+02    0.28608E-01   -0.20688E+01   768   0.114E+01    0.464E-01
DAV:   2    -0.848801243098E+02   -0.32823E-01   -0.27576E-01   832   0.188E+00    0.111E+00
DAV:   3    -0.848782855825E+02    0.18387E-02   -0.11999E-01   864   0.951E-01    0.137E+00
DAV:   4    -0.848817923931E+02   -0.35068E-02   -0.16857E-01   928   0.107E+00    0.168E+00
DAV:   5    -0.848736766381E+02    0.81158E-02   -0.14407E-02   880   0.398E-01    0.100E+00
DAV:   6    -0.848871392698E+02   -0.13463E-01   -0.25241E-02   992   0.592E-01    0.196E+00
DAV:   7    -0.848711396261E+02    0.16000E-01   -0.13450E-01  1096   0.106E+00    0.485E-01
DAV:   8    -0.848701211906E+02    0.10184E-02   -0.17437E-02   832   0.391E-01    0.340E-01
DAV:   9    -0.848698713938E+02    0.24980E-03   -0.63821E-04   688   0.870E-02    0.254E-01
DAV:  10    -0.848695951997E+02    0.27619E-03   -0.34812E-04   464   0.702E-02    0.130E-01
DAV:  11    -0.848695578516E+02    0.37348E-04   -0.31172E-04   576   0.482E-02
  33 F= -.84869558E+02 E0= -.84854829E+02  d E =0.694051E-02
 curvature:  -5.25 expect dE=-0.527E-01 dE for cont linesearch -0.656E-03
 ZBRENT: increasing intervall
 opt :  10.7971  next Energy=   -84.864108 (dE= 0.124E-01)
 bond charge predicted
       N       E                     dE             d eps       ncg     rms          rms(c)
DAV:   1    -0.847291694623E+02    0.14043E+00   -0.83415E+01   768   0.228E+01    0.850E-01
DAV:   2    -0.848357016983E+02   -0.10653E+00   -0.10261E+00   808   0.350E+00    0.117E+00
DAV:   3    -0.848610431032E+02   -0.25341E-01   -0.37424E-01   888   0.203E+00    0.247E+00
DAV:   4    -0.848808416229E+02   -0.19799E-01   -0.88590E-01  1000   0.267E+00    0.362E+00
DAV:   5    -0.848421013034E+02    0.38740E-01   -0.62468E-02   888   0.699E-01    0.230E+00
DAV:   6    -0.848727462786E+02   -0.30645E-01   -0.46414E-02   960   0.723E-01    0.335E+00
DAV:   7    -0.848312046965E+02    0.41542E-01   -0.65460E-01  1152   0.221E+00    0.158E+00
DAV:   8    -0.848183512660E+02    0.12853E-01   -0.13066E-01   864   0.117E+00    0.716E-01
DAV:   9    -0.848160602757E+02    0.22910E-02   -0.14879E-02   856   0.324E-01    0.237E-01
DAV:  10    -0.848157762043E+02    0.28407E-03   -0.58881E-04   584   0.102E-01    0.218E-01
DAV:  11    -0.848152581339E+02    0.51807E-03   -0.10454E-03   824   0.100E-01    0.103E-01
DAV:  12    -0.848152981283E+02   -0.39994E-04   -0.95561E-04   560   0.106E-01
  34 F= -.84815298E+02 E0= -.84800855E+02  d E =0.612002E-01
 curvature:  43.61 expect dE= 0.225E+01 dE for cont linesearch  0.850E+00
 ZBRENT: bracketing found
 ZBRENT: interpolating
 opt :   4.7990  next Energy=   -84.869790 (dE= 0.671E-02)
 bond charge predicted
       N       E                     dE             d eps       ncg     rms          rms(c)
DAV:   1    -0.847958721612E+02    0.19386E-01   -0.71450E+01   768   0.210E+01    0.798E-01
DAV:   2    -0.853186013409E+02   -0.52273E+00   -0.28924E+00   856   0.595E+00    0.793E+00
DAV:   3    -0.849722186927E+02    0.34638E+00   -0.21270E-01   824   0.293E+00    0.356E+00
DAV:   4    -0.849197331170E+02    0.52486E-01   -0.97718E-02   848   0.161E+00    0.279E+00
DAV:   5    -0.848813662785E+02    0.38367E-01   -0.71337E-02   896   0.965E-01    0.106E+00
DAV:   6    -0.848766045044E+02    0.47618E-02   -0.76564E-03   920   0.382E-01    0.118E+00
DAV:   7    -0.849072474722E+02   -0.30643E-01   -0.71318E-02  1120   0.996E-01    0.278E+00
DAV:   8    -0.848761605172E+02    0.31087E-01   -0.86741E-02   856   0.769E-01    0.775E-01
DAV:   9    -0.848706534092E+02    0.55071E-02   -0.31454E-02   864   0.720E-01    0.627E-01
DAV:  10    -0.848713759584E+02   -0.72255E-03   -0.37860E-03   880   0.227E-01    0.718E-01
DAV:  11    -0.848703252583E+02    0.10507E-02   -0.44197E-04   600   0.978E-02    0.598E-01
DAV:  12    -0.848692345421E+02    0.10907E-02   -0.16756E-03   712   0.127E-01    0.330E-01
DAV:  13    -0.848690781170E+02    0.15643E-03   -0.17352E-03   576   0.107E-01    0.258E-01
DAV:  14    -0.848687304476E+02    0.34767E-03   -0.61485E-04   480   0.105E-01    0.157E-01
DAV:  15    -0.848687056244E+02    0.24823E-04   -0.59266E-04   504   0.814E-02
  35 F= -.84868706E+02 E0= -.84853855E+02  d E =0.779274E-02
 curvature:  -0.01 expect dE=-0.134E-03 dE for cont linesearch -0.319E-05
 ZBRENT: bisectioning
 opt :   7.7980  next Energy=   -84.877170 (dE=-0.672E-03)
 bond charge predicted
       N       E                     dE             d eps       ncg     rms          rms(c)
DAV:   1    -0.848325576802E+02    0.36173E-01   -0.17798E+01   768   0.105E+01    0.416E-01
DAV:   2    -0.848569790510E+02   -0.24421E-01   -0.23867E-01   792   0.162E+00    0.120E+00
DAV:   3    -0.848827626738E+02   -0.25784E-01   -0.25521E-01   904   0.127E+00    0.262E+00
DAV:   4    -0.848547214318E+02    0.28041E-01   -0.12462E-01   864   0.933E-01    0.661E-01
DAV:   5    -0.848546237635E+02    0.97668E-04   -0.34345E-03   848   0.218E-01    0.908E-01
DAV:   6    -0.848585891201E+02   -0.39654E-02   -0.51595E-03   704   0.291E-01    0.127E+00
DAV:   7    -0.848526519911E+02    0.59371E-02   -0.35660E-02   848   0.492E-01    0.382E-01
DAV:   8    -0.848511811941E+02    0.14708E-02   -0.91900E-03   904   0.463E-01    0.407E-01
DAV:   9    -0.848508304565E+02    0.35074E-03   -0.77053E-03   840   0.250E-01    0.222E-01
DAV:  10    -0.848507464911E+02    0.83965E-04   -0.19017E-04   472   0.508E-02
  36 F= -.84850746E+02 E0= -.84836110E+02  d E =0.257519E-01
 curvature: -31.51 expect dE=-0.737E+00 dE for cont linesearch -0.835E-01
 ZBRENT: interpolating
 opt :   5.5233  next Energy=   -84.869218 (dE= 0.728E-02)
 bond charge predicted
       N       E                     dE             d eps       ncg     rms          rms(c)
DAV:   1    -0.848566957900E+02   -0.58653E-02   -0.10243E+01   768   0.796E+00    0.294E-01
DAV:   2    -0.849472868521E+02   -0.90591E-01   -0.50443E-01   848   0.233E+00    0.399E+00
DAV:   3    -0.848836461467E+02    0.63641E-01   -0.17377E-01   816   0.123E+00    0.151E+00
DAV:   4    -0.848700505271E+02    0.13596E-01   -0.25469E-02   888   0.755E-01    0.722E-01
DAV:   5    -0.848680316982E+02    0.20188E-02   -0.41329E-03   824   0.253E-01    0.400E-01
DAV:   6    -0.848699379113E+02   -0.19062E-02   -0.47956E-03   632   0.240E-01    0.810E-01
DAV:   7    -0.848672309794E+02    0.27069E-02   -0.48681E-03   800   0.239E-01    0.375E-01
DAV:   8    -0.848670382399E+02    0.19274E-03   -0.43737E-03   832   0.204E-01    0.245E-01
DAV:   9    -0.848668907253E+02    0.14751E-03   -0.25247E-03   536   0.188E-01    0.228E-01
DAV:  10    -0.848667696279E+02    0.12110E-03   -0.19603E-04   456   0.482E-02    0.164E-01
DAV:  11    -0.848666109234E+02    0.15870E-03   -0.57729E-04   464   0.863E-02    0.102E-01
DAV:  12    -0.848666298964E+02   -0.18973E-04   -0.16444E-04   472   0.429E-02
  37 F= -.84866630E+02 E0= -.84851980E+02  d E =0.986847E-02
 curvature:  -0.19 expect dE=-0.240E-02 dE for cont linesearch -0.356E-06
 trial: gam= 4.15672 g(F)=  0.124E-01 g(S)=  0.000E+00 ort =-0.117E-03 (trialstep = 0.105E+00)
 search vector abs. value=  0.140E+00
 bond charge predicted
       N       E                     dE             d eps       ncg     rms          rms(c)
DAV:   1    -0.848653264500E+02    0.12845E-02   -0.40279E-01   768   0.156E+00    0.471E-02
DAV:   2    -0.848669235107E+02   -0.15971E-02   -0.99195E-03   816   0.322E-01    0.534E-01
DAV:   3    -0.848657721016E+02    0.11514E-02   -0.60926E-03   784   0.222E-01    0.590E-02
DAV:   4    -0.848657734938E+02   -0.13922E-05   -0.80123E-05   480   0.419E-02
  38 F= -.84865773E+02 E0= -.84851154E+02  d E =0.856403E-03
 trial-energy change:    0.000856  1 .order   -0.000921   -0.001246   -0.000596
 step:   0.2007(harm=  0.2007)  dis= 0.00248  next Energy=   -84.867824 (dE=-0.119E-02)
 bond charge predicted
       N       E                     dE             d eps       ncg     rms          rms(c)
DAV:   1    -0.848641514890E+02    0.16206E-02   -0.34136E-01   768   0.143E+00    0.128E-01
DAV:   2    -0.848911467316E+02   -0.26995E-01   -0.13776E-01  1080   0.109E+00    0.251E+00
DAV:   3    -0.848651415758E+02    0.26005E-01   -0.12968E-01  1104   0.101E+00    0.126E-01
DAV:   4    -0.848645632028E+02    0.57837E-03   -0.13427E-03   832   0.201E-01    0.204E-01
DAV:   5    -0.848644605199E+02    0.10268E-03   -0.19235E-04   464   0.629E-02    0.146E-01
DAV:   6    -0.848646218557E+02   -0.16134E-03   -0.27815E-03   520   0.180E-01    0.236E-01
DAV:   7    -0.848643021068E+02    0.31975E-03   -0.12673E-03   480   0.135E-01    0.375E-02
DAV:   8    -0.848644439549E+02   -0.14185E-03   -0.75050E-04   536   0.958E-02    0.159E-01
DAV:   9    -0.848643111353E+02    0.13282E-03   -0.84635E-04   464   0.993E-02    0.409E-02
DAV:  10    -0.848643174158E+02   -0.62805E-05   -0.31524E-05   392   0.184E-02
  39 F= -.84864317E+02 E0= -.84849698E+02  d E =0.231248E-02
 curvature:  -1.18 expect dE=-0.157E-01 dE for cont linesearch -0.185E-04
 trial: gam= 0.07738 g(F)=  0.133E-01 g(S)=  0.000E+00 ort = 0.148E-02 (trialstep = 0.124E+00)
 search vector abs. value=  0.144E-01
 bond charge predicted
       N       E                     dE             d eps       ncg     rms          rms(c)
DAV:   1    -0.848656245560E+02   -0.13134E-02   -0.59796E-02   768   0.634E-01    0.352E-02
DAV:   2    -0.848660379416E+02   -0.41339E-03   -0.21337E-03   784   0.171E-01    0.267E-01
DAV:   3    -0.848661750998E+02   -0.13716E-03   -0.13945E-04   496   0.435E-02    0.315E-01
DAV:   4    -0.848661577076E+02    0.17392E-04   -0.13322E-05   384   0.118E-02
  40 F= -.84866158E+02 E0= -.84851655E+02  d E =-.184029E-02
 ZBRENT: can't locate minimum, use default step
 trial-energy change:   -0.001840  1 .order   -0.001577   -0.001661   -0.001492
 step:   0.4955(harm=  1.2205)  dis= 0.00365  next Energy=   -84.872500 (dE=-0.818E-02)
 bond charge predicted
       N       E                     dE             d eps       ncg     rms          rms(c)
DAV:   1    -0.848686732514E+02   -0.24982E-02   -0.54046E-01   768   0.191E+00    0.301E-01
DAV:   2    -0.849979870566E+02   -0.12931E+00   -0.60446E-01  1080   0.232E+00    0.495E+00
DAV:   3    -0.848805592039E+02    0.11743E+00   -0.87350E-01  1144   0.262E+00    0.129E+00
DAV:   4    -0.848753465809E+02    0.52126E-02   -0.83114E-03   864   0.283E-01    0.955E-01
DAV:   5    -0.848694451862E+02    0.59014E-02   -0.12567E-02   856   0.432E-01    0.262E-01
DAV:   6    -0.848694334023E+02    0.11784E-04   -0.46935E-04   720   0.957E-02
  41 F= -.84869433E+02 E0= -.84855131E+02  d E =-.511599E-02
 curvature:  -0.37 expect dE=-0.265E-02 dE for cont linesearch -0.224E-02
 ZBRENT: increasing intervall
 opt :   1.2388  next Energy=   -84.874384 (dE=-0.101E-01)
 bond charge predicted
       N       E                     dE             d eps       ncg     rms          rms(c)
DAV:   1    -0.848703516100E+02   -0.90642E-03   -0.21569E+00   768   0.382E+00    0.576E-01
DAV:   2    -0.852400198103E+02   -0.36967E+00   -0.15948E+00  1040   0.405E+00    0.709E+00
DAV:   3    -0.849241482847E+02    0.31587E+00   -0.15116E+00  1152   0.500E+00    0.275E+00
DAV:   4    -0.849078439433E+02    0.16304E-01   -0.28187E-02   832   0.464E-01    0.220E+00
DAV:   5    -0.848728499408E+02    0.34994E-01   -0.12337E-01  1048   0.132E+00    0.275E-01
DAV:   6    -0.848755740311E+02   -0.27241E-02   -0.18652E-02   848   0.412E-01    0.875E-01
DAV:   7    -0.848748090007E+02    0.76503E-03   -0.44069E-03   832   0.316E-01    0.764E-01
DAV:   8    -0.848747990098E+02    0.99910E-05   -0.10317E-03   760   0.114E-01    0.636E-01
DAV:   9    -0.848723788699E+02    0.24201E-02   -0.12449E-02   736   0.309E-01    0.256E-01
DAV:  10    -0.848723367577E+02    0.42112E-04   -0.26711E-04   544   0.669E-02
  42 F= -.84872337E+02 E0= -.84857910E+02  d E =-.801934E-02
 curvature:  -0.81 expect dE=-0.287E-02 dE for cont linesearch -0.194E-03
 ZBRENT: extrapolating
 opt :   1.4220  next Energy=   -84.872506 (dE=-0.819E-02)
 bond charge predicted
       N       E                     dE             d eps       ncg     rms          rms(c)
DAV:   1    -0.848718155040E+02    0.56337E-03   -0.13032E-01   768   0.939E-01    0.176E-01
DAV:   2    -0.848769366699E+02   -0.51212E-02   -0.31463E-02   888   0.498E-01    0.125E+00
DAV:   3    -0.848795667304E+02   -0.26301E-02   -0.99428E-02  1064   0.831E-01    0.123E+00
DAV:   4    -0.848726050261E+02    0.69617E-02   -0.60902E-02   960   0.695E-01    0.394E-01
DAV:   5    -0.848743435136E+02   -0.17385E-02   -0.31007E-03   832   0.259E-01    0.709E-01
DAV:   6    -0.848720011596E+02    0.23424E-02   -0.59405E-03   680   0.275E-01    0.202E-01
DAV:   7    -0.848718145403E+02    0.18662E-03   -0.40829E-04   520   0.842E-02    0.657E-02
DAV:   8    -0.848718265452E+02   -0.12005E-04   -0.58821E-05   432   0.306E-02
  43 F= -.84871827E+02 E0= -.84857193E+02  d E =-.750913E-02
 curvature:  -0.71 expect dE=-0.272E-02 dE for cont linesearch -0.181E-05
 trial: gam= 0.29438 g(F)=  0.382E-02 g(S)=  0.000E+00 ort = 0.191E-03 (trialstep = 0.384E+00)
 search vector abs. value=  0.518E-02
 bond charge predicted
       N       E                     dE             d eps       ncg     rms          rms(c)
DAV:   1    -0.848730080922E+02   -0.11936E-02   -0.19909E-01   768   0.117E+00    0.436E-02
DAV:   2    -0.848754592217E+02   -0.24511E-02   -0.12528E-02   872   0.356E-01    0.746E-01
DAV:   3    -0.848732680517E+02    0.21912E-02   -0.80344E-03   840   0.255E-01    0.894E-02
DAV:   4    -0.848732356159E+02    0.32436E-04   -0.54358E-04   496   0.102E-01
  44 F= -.84873236E+02 E0= -.84858570E+02  d E =-.140907E-02
 ZBRENT: can't locate minimum, use default step
 trial-energy change:   -0.001409  1 .order   -0.001364   -0.001488   -0.001241
 step:   1.5340(harm=  2.3153)  dis= 0.01089  next Energy=   -84.876317 (dE=-0.449E-02)
 bond charge predicted
       N       E                     dE             d eps       ncg     rms          rms(c)
DAV:   1    -0.848735758901E+02   -0.30784E-03   -0.17952E+00   768   0.351E+00    0.138E-01
DAV:   2    -0.848756051842E+02   -0.20293E-02   -0.20287E-02   784   0.514E-01    0.176E-01
DAV:   3    -0.848779327724E+02   -0.23276E-02   -0.14718E-02   888   0.347E-01    0.816E-01
DAV:   4    -0.848755799106E+02    0.23529E-02   -0.10023E-02   712   0.291E-01    0.181E-01
DAV:   5    -0.848755277055E+02    0.52205E-04   -0.20291E-04   464   0.456E-02
  45 F= -.84875528E+02 E0= -.84860644E+02  d E =-.370116E-02
 curvature:  -1.29 expect dE=-0.197E-02 dE for cont linesearch -0.213E-03
 ZBRENT: extrapolating
 opt :   1.9932  next Energy=   -84.875740 (dE=-0.391E-02)
 bond charge predicted
       N       E                     dE             d eps       ncg     rms          rms(c)
DAV:   1    -0.848782166139E+02   -0.26367E-02   -0.29724E-01   768   0.146E+00    0.814E-01
DAV:   2    -0.863311404543E+02   -0.14529E+01   -0.55360E+00  1136   0.866E+00    0.145E+01
DAV:   3    -0.848928075215E+02    0.14383E+01   -0.71621E+00  1240   0.854E+00    0.862E-01
DAV:   4    -0.848875764112E+02    0.52311E-02   -0.17535E-01   936   0.140E+00    0.175E+00
DAV:   5    -0.848799976563E+02    0.75788E-02   -0.22719E-02   896   0.469E-01    0.834E-01
DAV:   6    -0.848776908299E+02    0.23068E-02   -0.50092E-02  1008   0.792E-01    0.806E-01
DAV:   7    -0.848762608927E+02    0.14299E-02   -0.30781E-03   816   0.165E-01    0.428E-01
DAV:   8    -0.848752860322E+02    0.97486E-03   -0.76995E-03   696   0.286E-01    0.247E-01
DAV:   9    -0.848752962226E+02   -0.10190E-04   -0.30143E-04   592   0.594E-02
  46 F= -.84875296E+02 E0= -.84860566E+02  d E =-.346968E-02
 curvature:  -1.29 expect dE=-0.218E-02 dE for cont linesearch -0.448E-05
 trial: gam= 0.38646 g(F)=  0.169E-02 g(S)=  0.000E+00 ort =-0.134E-03 (trialstep = 0.705E+00)
 search vector abs. value=  0.236E-02
 bond charge predicted
       N       E                     dE             d eps       ncg     rms          rms(c)
DAV:   1    -0.848750707266E+02    0.21531E-03   -0.31227E-01   768   0.145E+00    0.140E-01
DAV:   2    -0.848902943973E+02   -0.15224E-01   -0.78166E-02  1016   0.790E-01    0.193E+00
DAV:   3    -0.848765414897E+02    0.13753E-01   -0.89959E-02   984   0.853E-01    0.323E-01
DAV:   4    -0.848760637047E+02    0.47778E-03   -0.99452E-03   912   0.355E-01    0.394E-01
DAV:   5    -0.848761697067E+02   -0.10600E-03   -0.28658E-04   496   0.874E-02    0.413E-01
DAV:   6    -0.848754013173E+02    0.76839E-03   -0.41593E-03   528   0.224E-01    0.983E-02
DAV:   7    -0.848754315407E+02   -0.30223E-04   -0.27296E-04   560   0.778E-02
  47 F= -.84875432E+02 E0= -.84860793E+02  d E =-.135318E-03
 trial-energy change:   -0.000135  1 .order   -0.000855   -0.001159   -0.000551
 step:   1.3449(harm=  1.3449)  dis= 0.00160  next Energy=   -84.876401 (dE=-0.110E-02)
 bond charge predicted
       N       E                     dE             d eps       ncg     rms          rms(c)
DAV:   1    -0.848747867289E+02    0.61459E-03   -0.25721E-01   768   0.132E+00    0.109E-01
DAV:   2    -0.848852270335E+02   -0.10440E-01   -0.53791E-02  1000   0.684E-01    0.157E+00
DAV:   3    -0.848755968089E+02    0.96302E-02   -0.67384E-02   960   0.730E-01    0.331E-01
DAV:   4    -0.848755929809E+02    0.38281E-05   -0.65526E-04   872   0.121E-01
  48 F= -.84875593E+02 E0= -.84860709E+02  d E =-.296758E-03
 curvature:  -0.97 expect dE=-0.136E-02 dE for cont linesearch -0.339E-05
 trial: gam= 0.70245 g(F)=  0.140E-02 g(S)=  0.000E+00 ort = 0.909E-04 (trialstep = 0.730E+00)
 search vector abs. value=  0.270E-02
 bond charge predicted
       N       E                     dE             d eps       ncg     rms          rms(c)
DAV:   1    -0.848743342677E+02    0.12625E-02   -0.37647E-01   768   0.155E+00    0.181E-01
DAV:   2    -0.849510937903E+02   -0.76760E-01   -0.38617E-01  1112   0.185E+00    0.410E+00
DAV:   3    -0.848768145018E+02    0.74279E-01   -0.30498E-01  1120   0.165E+00    0.205E-01
DAV:   4    -0.848748158998E+02    0.19986E-02   -0.36826E-03   896   0.334E-01    0.210E-01
DAV:   5    -0.848747238686E+02    0.92031E-04   -0.45290E-04   736   0.101E-01
  49 F= -.84874724E+02 E0= -.84859886E+02  d E =0.869112E-03
 trial-energy change:    0.000869  1 .order   -0.000904   -0.001072   -0.000736
 step:   2.3269(harm=  2.3269)  dis= 0.00238  next Energy=   -84.877301 (dE=-0.171E-02)
 bond charge predicted
       N       E                     dE             d eps       ncg     rms          rms(c)
DAV:   1    -0.848705565164E+02    0.42594E-02   -0.18030E+00   768   0.339E+00    0.318E-01
DAV:   2    -0.849960938823E+02   -0.12554E+00   -0.58405E-01  1024   0.234E+00    0.484E+00
DAV:   3    -0.848835085285E+02    0.11259E+00   -0.76593E-01  1072   0.257E+00    0.119E+00
DAV:   4    -0.848756615948E+02    0.78469E-02   -0.14636E-02   880   0.460E-01    0.729E-01
DAV:   5    -0.848721799954E+02    0.34816E-02   -0.88740E-03   872   0.354E-01    0.132E-01
DAV:   6    -0.848720869024E+02    0.93093E-04   -0.73561E-04   800   0.132E-01
  50 F= -.84872087E+02 E0= -.84857250E+02  d E =0.350608E-02
 curvature:  -2.14 expect dE=-0.243E-02 dE for cont linesearch -0.211E-06
 trial: gam= 0.80231 g(F)=  0.114E-02 g(S)=  0.000E+00 ort = 0.163E-04 (trialstep = 0.977E+00)
 search vector abs. value=  0.290E-02
 bond charge predicted
       N       E                     dE             d eps       ncg     rms          rms(c)
DAV:   1    -0.848705015719E+02    0.16784E-02   -0.72577E-01   768   0.216E+00    0.483E-01
DAV:   2    -0.853020737400E+02   -0.43157E+00   -0.17400E+00  1104   0.439E+00    0.764E+00
DAV:   3    -0.848928875168E+02    0.40919E+00   -0.13723E+00  1216   0.472E+00    0.145E+00
DAV:   4    -0.848764735919E+02    0.16414E-01   -0.30601E-02   824   0.431E-01    0.599E-01
DAV:   5    -0.848716807443E+02    0.47928E-02   -0.31709E-02   944   0.810E-01    0.615E-01
DAV:   6    -0.848705732729E+02    0.11075E-02   -0.91724E-03   864   0.272E-01    0.166E-01
DAV:   7    -0.848711008837E+02   -0.52761E-03   -0.27403E-03   760   0.235E-01    0.406E-01
DAV:   8    -0.848709545284E+02    0.14636E-03   -0.39805E-04   488   0.886E-02    0.338E-01
DAV:   9    -0.848703295476E+02    0.62498E-03   -0.24140E-03   504   0.159E-01    0.750E-02
DAV:  10    -0.848704167080E+02   -0.87160E-04   -0.58435E-04   592   0.797E-02
  51 F= -.84870417E+02 E0= -.84855561E+02  d E =0.167019E-02
 trial-energy change:    0.001670  1 .order   -0.000849   -0.001123   -0.000576
 step:   2.0045(harm=  2.0045)  dis= 0.00326  next Energy=   -84.873239 (dE=-0.115E-02)
 bond charge predicted
       N       E                     dE             d eps       ncg     rms          rms(c)
DAV:   1    -0.848667668854E+02    0.35627E-02   -0.79802E-01   768   0.226E+00    0.987E-02
DAV:   2    -0.848735645230E+02   -0.67976E-02   -0.38988E-02   848   0.588E-01    0.128E+00
DAV:   3    -0.848677828629E+02    0.57817E-02   -0.25795E-02   864   0.454E-01    0.125E-01
DAV:   4    -0.848680883024E+02   -0.30544E-03   -0.16310E-03   600   0.143E-01    0.339E-01
DAV:   5    -0.848678206493E+02    0.26765E-03   -0.37011E-04   504   0.919E-02    0.234E-01
DAV:   6    -0.848677058492E+02    0.11480E-03   -0.20754E-03   512   0.166E-01    0.110E-01
DAV:   7    -0.848679628330E+02   -0.25698E-03   -0.28945E-03   544   0.204E-01    0.260E-01
DAV:   8    -0.848676158600E+02    0.34697E-03   -0.12586E-03   480   0.131E-01    0.321E-02
DAV:   9    -0.848676327216E+02   -0.16862E-04   -0.65954E-05   456   0.288E-02
  52 F= -.84867633E+02 E0= -.84852706E+02  d E =0.445418E-02
 curvature:  -2.53 expect dE=-0.101E-01 dE for cont linesearch -0.749E-04
 trial: gam= 2.48590 g(F)=  0.400E-02 g(S)=  0.000E+00 ort =-0.293E-03 (trialstep = 0.168E+00)
 search vector abs. value=  0.205E-01
 bond charge predicted
       N       E                     dE             d eps       ncg     rms          rms(c)
DAV:   1    -0.848668973314E+02    0.71853E-03   -0.14864E-01   768   0.988E-01    0.374E-02
DAV:   2    -0.848675225008E+02   -0.62517E-03   -0.36367E-03   816   0.212E-01    0.326E-01
DAV:   3    -0.848671742645E+02    0.34824E-03   -0.62765E-04   464   0.766E-02    0.157E-01
DAV:   4    -0.848671081443E+02    0.66120E-04   -0.11762E-03   520   0.144E-01    0.919E-02
DAV:   5    -0.848670678801E+02    0.40264E-04   -0.15719E-04   456   0.525E-02
  53 F= -.84867068E+02 E0= -.84852134E+02  d E =0.564842E-03
 ZBRENT: can't locate minimum, use default step
 trial-energy change:    0.000565  1 .order   -0.000517   -0.000548   -0.000486
 step:   0.6701(harm=  1.4654)  dis= 0.00157  next Energy=   -84.870030 (dE=-0.240E-02)
 bond charge predicted
       N       E                     dE             d eps       ncg     rms          rms(c)
DAV:   1    -0.848638257906E+02    0.32824E-02   -0.13436E+00   768   0.297E+00    0.148E-01
DAV:   2    -0.848794880905E+02   -0.15662E-01   -0.84172E-02   888   0.873E-01    0.189E+00
DAV:   3    -0.848673504948E+02    0.12138E-01   -0.11503E-01   904   0.956E-01    0.633E-01
DAV:   4    -0.848656243712E+02    0.17261E-02   -0.44443E-03   872   0.227E-01    0.262E-01
DAV:   5    -0.848652623319E+02    0.36204E-03   -0.54087E-04   520   0.110E-01    0.135E-01
DAV:   6    -0.848663735648E+02   -0.11112E-02   -0.29824E-03   544   0.206E-01    0.487E-01
DAV:   7    -0.848653625834E+02    0.10110E-02   -0.92392E-03   736   0.341E-01    0.193E-01
DAV:   8    -0.848652030734E+02    0.15951E-03   -0.15251E-03   584   0.132E-01    0.686E-02
DAV:   9    -0.848652045399E+02   -0.14665E-05   -0.74138E-05   456   0.430E-02
  54 F= -.84865205E+02 E0= -.84850210E+02  d E =0.242818E-02
 curvature:  -2.86 expect dE=-0.177E-01 dE for cont linesearch -0.115E-02
 ZBRENT: increasing intervall
 opt :   1.6753  next Energy=   -84.868049 (dE=-0.417E-03)
 bond charge predicted
       N       E                     dE             d eps       ncg     rms          rms(c)
DAV:   1    -0.848567859946E+02    0.84171E-02   -0.53702E+00   768   0.594E+00    0.202E-01
DAV:   2    -0.848645599740E+02   -0.77740E-02   -0.70574E-02   800   0.905E-01    0.718E-01
DAV:   3    -0.848692231642E+02   -0.46632E-02   -0.67378E-02   904   0.729E-01    0.126E+00
DAV:   4    -0.848631475609E+02    0.60756E-02   -0.29988E-02   936   0.555E-01    0.207E-01
DAV:   5    -0.848629166507E+02    0.23091E-03   -0.19373E-03   648   0.181E-01    0.294E-01
DAV:   6    -0.848674646570E+02   -0.45480E-02   -0.11596E-02   832   0.414E-01    0.993E-01
DAV:   7    -0.848625795956E+02    0.48851E-02   -0.22157E-02   936   0.508E-01    0.107E-01
DAV:   8    -0.848625602967E+02    0.19299E-04   -0.76820E-04   832   0.128E-01
  55 F= -.84862560E+02 E0= -.84847228E+02  d E =0.507242E-02
 curvature:  -7.10 expect dE=-0.649E-01 dE for cont linesearch -0.825E-02
 ZBRENT: increasing intervall
 opt :   3.6856  next Energy=   -84.876411 (dE=-0.878E-02)
 bond charge predicted
       N       E                     dE             d eps       ncg     rms          rms(c)
DAV:   1    -0.848328453553E+02    0.29734E-01   -0.21481E+01   768   0.119E+01    0.394E-01
DAV:   2    -0.848601821075E+02   -0.27337E-01   -0.25080E-01   784   0.181E+00    0.694E-01
DAV:   3    -0.848776315135E+02   -0.17449E-01   -0.14612E-01   896   0.126E+00    0.229E+00
DAV:   4    -0.848608275002E+02    0.16804E-01   -0.17862E-01   936   0.112E+00    0.101E+00
DAV:   5    -0.848578536784E+02    0.29738E-02   -0.44236E-03   904   0.289E-01    0.645E-01
DAV:   6    -0.848635537831E+02   -0.57001E-02   -0.10933E-02   896   0.414E-01    0.124E+00
DAV:   7    -0.848590826058E+02    0.44712E-02   -0.83883E-02  1080   0.102E+00    0.826E-01
DAV:   8    -0.848559400967E+02    0.31425E-02   -0.23367E-02   896   0.473E-01    0.247E-01
DAV:   9    -0.848560353300E+02   -0.95233E-04   -0.60205E-04   736   0.103E-01
  56 F= -.84856035E+02 E0= -.84840431E+02  d E =0.115974E-01
 curvature: -11.92 expect dE=-0.202E+00 dE for cont linesearch -0.332E-02
 ZBRENT: increasing intervall
 opt :   7.7062  next Energy=   -84.855636 (dE= 0.120E-01)
 bond charge predicted
       N       E                     dE             d eps       ncg     rms          rms(c)
DAV:   1    -0.847658529565E+02    0.90087E-01   -0.86411E+01   768   0.240E+01    0.776E-01
DAV:   2    -0.848829533092E+02   -0.11710E+00   -0.10485E+00   784   0.370E+00    0.193E+00
DAV:   3    -0.848830808566E+02   -0.12755E-03   -0.30060E-01   872   0.183E+00    0.232E+00
DAV:   4    -0.848666526971E+02    0.16428E-01   -0.16833E-01   880   0.108E+00    0.103E+00
DAV:   5    -0.848653991230E+02    0.12536E-02   -0.19566E-02   912   0.683E-01    0.128E+00
DAV:   6    -0.849157960269E+02   -0.50397E-01   -0.10856E-01  1104   0.133E+00    0.332E+00
DAV:   7    -0.848623041345E+02    0.53492E-01   -0.36607E-01  1168   0.215E+00    0.105E+00
DAV:   8    -0.848579968280E+02    0.43073E-02   -0.46630E-02   808   0.576E-01    0.412E-01
DAV:   9    -0.848574130097E+02    0.58382E-03   -0.24141E-03   824   0.174E-01    0.271E-01
DAV:  10    -0.848570650749E+02    0.34793E-03   -0.31741E-04   512   0.788E-02    0.196E-01
DAV:  11    -0.848567978654E+02    0.26721E-03   -0.53721E-04   496   0.765E-02    0.131E-01
DAV:  12    -0.848567355736E+02    0.62292E-04   -0.61394E-04   792   0.792E-02
  57 F= -.84856736E+02 E0= -.84838630E+02  d E =0.108971E-01
 curvature:   1.43 expect dE= 0.408E-01 dE for cont linesearch  0.995E-04
 ZBRENT: increasing intervall
 opt :  15.7475  next Energy=   -84.856701 (dE= 0.109E-01)
 bond charge predicted
       N       E                     dE             d eps       ncg     rms          rms(c)
DAV:   1    -0.843998584535E+02    0.45694E+00   -0.34959E+02   768   0.487E+01    0.171E+00
DAV:   2    -0.860002644257E+02   -0.16004E+01   -0.81223E+00   816   0.109E+01    0.142E+01
DAV:   3    -0.848221275280E+02    0.11781E+01   -0.39111E+00   872   0.726E+00    0.226E+00
DAV:   4    -0.848355517371E+02   -0.13424E-01   -0.30841E-01   888   0.229E+00    0.285E+00
DAV:   5    -0.847946227257E+02    0.40929E-01   -0.16955E-01   856   0.141E+00    0.138E+00
DAV:   6    -0.847764825349E+02    0.18140E-01   -0.55119E-02   928   0.151E+00    0.103E+00
DAV:   7    -0.848323409549E+02   -0.55858E-01   -0.41549E-01   968   0.195E+00    0.403E+00
DAV:   8    -0.848932091836E+02   -0.60868E-01   -0.89133E-02   880   0.148E+00    0.457E+00
DAV:   9    -0.848196256805E+02    0.73584E-01   -0.13167E-01   856   0.114E+00    0.256E+00
DAV:  10    -0.847852593280E+02    0.34366E-01   -0.38451E-02   880   0.781E-01    0.141E+00
DAV:  11    -0.847741852239E+02    0.11074E-01   -0.76177E-03   880   0.433E-01    0.106E+00
DAV:  12    -0.847677883393E+02    0.63969E-02   -0.27044E-03   880   0.305E-01    0.893E-01
DAV:  13    -0.847614868940E+02    0.63014E-02   -0.10168E-02   832   0.409E-01    0.453E-01
DAV:  14    -0.847603705628E+02    0.11163E-02   -0.38256E-03   856   0.227E-01    0.542E-01
DAV:  15    -0.847602163197E+02    0.15424E-03   -0.51146E-04   496   0.740E-02    0.486E-01
DAV:  16    -0.847602294848E+02   -0.13165E-04   -0.47277E-04   456   0.699E-02
  58 F= -.84760229E+02 E0= -.84737282E+02  d E =0.107403E+00
 curvature:   0.50 expect dE= 0.589E-01 dE for cont linesearch  0.116E-02
 ZBRENT: bracketing found
 ZBRENT: interpolating
 opt :   8.8936  next Energy=   -84.857443 (dE= 0.102E-01)
 bond charge predicted
       N       E                     dE             d eps       ncg     rms          rms(c)
DAV:   1    -0.845930280744E+02    0.16719E+00   -0.25282E+02   768   0.416E+01    0.145E+00
DAV:   2    -0.849559541242E+02   -0.36293E+00   -0.31072E+00   808   0.656E+00    0.343E+00
DAV:   3    -0.849069374313E+02    0.49017E-01   -0.77607E-01   848   0.245E+00    0.338E+00
DAV:   4    -0.849024571731E+02    0.44803E-02   -0.68540E-01   856   0.182E+00    0.321E+00
DAV:   5    -0.848935845136E+02    0.88727E-02   -0.30514E-02   912   0.914E-01    0.300E+00
DAV:   6    -0.849340991755E+02   -0.40515E-01   -0.79018E-02   920   0.106E+00    0.401E+00
DAV:   7    -0.848839771571E+02    0.50122E-01   -0.10522E+00  1080   0.292E+00    0.273E+00
DAV:   8    -0.848602743584E+02    0.23703E-01   -0.35432E-01   912   0.181E+00    0.161E+00
DAV:   9    -0.848503251886E+02    0.99492E-02   -0.55687E-02   856   0.648E-01    0.327E-01
DAV:  10    -0.848497582241E+02    0.56696E-03   -0.12780E-03   864   0.126E-01    0.337E-01
DAV:  11    -0.848494233435E+02    0.33488E-03   -0.34371E-04   448   0.619E-02    0.346E-01
DAV:  12    -0.848505525800E+02   -0.11292E-02   -0.64324E-03   816   0.285E-01    0.685E-01
DAV:  13    -0.848491341723E+02    0.14184E-02   -0.34896E-03   832   0.159E-01    0.278E-01
DAV:  14    -0.848488816070E+02    0.25257E-03   -0.20482E-04   480   0.688E-02    0.220E-01
DAV:  15    -0.848487977454E+02    0.83862E-04   -0.80372E-05   432   0.397E-02
  59 F= -.84848798E+02 E0= -.84829552E+02  d E =0.188350E-01
 curvature:  -0.31 expect dE=-0.106E-01 dE for cont linesearch -0.572E-03
 ZBRENT: interpolating
 opt :   7.8981  next Energy=   -84.856850 (dE= 0.108E-01)
 bond charge predicted
       N       E                     dE             d eps       ncg     rms          rms(c)
DAV:   1    -0.848508473629E+02   -0.19658E-02   -0.52789E+00   768   0.592E+00    0.215E-01
DAV:   2    -0.848696140944E+02   -0.18767E-01   -0.12770E-01   824   0.114E+00    0.188E+00
DAV:   3    -0.848601759175E+02    0.94382E-02   -0.13538E-01   880   0.105E+00    0.962E-01
DAV:   4    -0.848571834168E+02    0.29925E-02   -0.90897E-03   888   0.252E-01    0.387E-01
DAV:   5    -0.848578411362E+02   -0.65772E-03   -0.17372E-03   664   0.189E-01    0.605E-01
DAV:   6    -0.848572145394E+02    0.62660E-03   -0.81032E-04   632   0.136E-01    0.467E-01
DAV:   7    -0.848589171305E+02   -0.17026E-02   -0.29472E-02   960   0.571E-01    0.701E-01
DAV:   8    -0.848566387749E+02    0.22784E-02   -0.20597E-02   976   0.498E-01    0.316E-01
DAV:   9    -0.848562777538E+02    0.36102E-03   -0.11102E-03   560   0.889E-02    0.127E-01
DAV:  10    -0.848562248865E+02    0.52867E-04   -0.65789E-05   424   0.373E-02
  60 F= -.84856225E+02 E0= -.84837909E+02  d E =0.114078E-01
 curvature:  -0.06 expect dE=-0.174E-02 dE for cont linesearch -0.464E-06
 trial: gam= 6.23085 g(F)=  0.284E-01 g(S)=  0.000E+00 ort = 0.394E-03 (trialstep = 0.424E-01)
 search vector abs. value=  0.828E+00
 bond charge predicted
       N       E                     dE             d eps       ncg     rms          rms(c)
DAV:   1    -0.848558106551E+02    0.46710E-03   -0.38649E-01   768   0.160E+00    0.778E-02
DAV:   2    -0.848636967074E+02   -0.78861E-02   -0.42810E-02   952   0.601E-01    0.141E+00
DAV:   3    -0.848565083925E+02    0.71883E-02   -0.45938E-02   920   0.605E-01    0.229E-01
DAV:   4    -0.848562790556E+02    0.22934E-03   -0.71156E-04   688   0.830E-02    0.135E-01
DAV:   5    -0.848562059723E+02    0.73083E-04   -0.67294E-05   432   0.433E-02
  61 F= -.84856206E+02 E0= -.84837781E+02  d E =0.189142E-04
 trial-energy change:    0.000019  1 .order   -0.001014   -0.001307   -0.000720
 step:   0.0943(harm=  0.0943)  dis= 0.00115  next Energy=   -84.857681 (dE=-0.146E-02)
 bond charge predicted
       N       E                     dE             d eps       ncg     rms          rms(c)
[...]
DAV:   6    -0.848791125558E+02   -0.60679E-04   -0.39938E-04   528   0.959E-02
  94 F= -.84879113E+02 E0= -.84854305E+02  d E =-.349265E-03
 ZBRENT: can't locate minimum, use default step
 trial-energy change:   -0.000349  1 .order   -0.000745   -0.000810   -0.000681
 step:   1.2240(harm=  1.9212)  dis= 0.00169  next Energy=   -84.881305 (dE=-0.254E-02)
 bond charge predicted
       N       E                     dE             d eps       ncg     rms          rms(c)
DAV:   1    -0.848774474781E+02    0.16044E-02   -0.14646E+00   768   0.301E+00    0.126E-01
DAV:   2    -0.848799969246E+02   -0.25494E-02   -0.19278E-02   832   0.512E-01    0.370E-01
DAV:   3    -0.848797431102E+02    0.25381E-03   -0.94992E-03   856   0.319E-01    0.439E-01
DAV:   4    -0.848792962430E+02    0.44687E-03   -0.74288E-03   800   0.241E-01    0.276E-01
DAV:   5    -0.848790353633E+02    0.26088E-03   -0.67243E-04   456   0.910E-02    0.114E-01
DAV:   6    -0.848798279719E+02   -0.79261E-03   -0.25056E-03   528   0.193E-01    0.435E-01
DAV:   7    -0.848790932965E+02    0.73468E-03   -0.68915E-03   752   0.279E-01    0.194E-01
DAV:   8    -0.848791333571E+02   -0.40061E-04   -0.39223E-04   528   0.637E-02
  95 F= -.84879133E+02 E0= -.84854196E+02  d E =-.370066E-03
 curvature:  -1.97 expect dE=-0.416E-02 dE for cont linesearch -0.761E-04
 ZBRENT: extrapolating
 opt :   1.4953  next Energy=   -84.879202 (dE=-0.439E-03)
 bond charge predicted
       N       E                     dE             d eps       ncg     rms          rms(c)
DAV:   1    -0.848784023795E+02    0.69092E-03   -0.12829E-01   768   0.900E-01    0.852E-02
DAV:   2    -0.848885828905E+02   -0.10181E-01   -0.41559E-02  1024   0.651E-01    0.156E+00
DAV:   3    -0.848789741677E+02    0.96087E-02   -0.53115E-02  1000   0.660E-01    0.237E-01
DAV:   4    -0.848790296209E+02   -0.55453E-04   -0.70084E-04   816   0.134E-01
  96 F= -.84879030E+02 E0= -.84854633E+02  d E =-.266330E-03
 curvature:  -1.78 expect dE=-0.503E-02 dE for cont linesearch -0.136E-04
 trial: gam= 0.81940 g(F)=  0.282E-02 g(S)=  0.000E+00 ort =-0.226E-03 (trialstep = 0.523E+00)
 search vector abs. value=  0.693E-02
 bond charge predicted
       N       E                     dE             d eps       ncg     rms          rms(c)
DAV:   1    -0.848786211843E+02    0.35298E-03   -0.49746E-01   768   0.181E+00    0.103E-01
DAV:   2    -0.849012292344E+02   -0.22608E-01   -0.86426E-02  1016   0.991E-01    0.230E+00
DAV:   3    -0.848801322911E+02    0.21097E-01   -0.66033E-02   960   0.807E-01    0.178E-01
DAV:   4    -0.848791219416E+02    0.10103E-02   -0.11820E-03   896   0.183E-01    0.983E-02
DAV:   5    -0.848791622875E+02   -0.40346E-04   -0.31625E-04   480   0.798E-02
  97 F= -.84879162E+02 E0= -.84854155E+02  d E =-.132667E-03
 trial-energy change:   -0.000133  1 .order   -0.001199   -0.001380   -0.001018
 step:   1.9952(harm=  1.9952)  dis= 0.00386  next Energy=   -84.881659 (dE=-0.263E-02)
 bond charge predicted
       N       E                     dE             d eps       ncg     rms          rms(c)
DAV:   1    -0.848751971113E+02    0.39248E-02   -0.39147E+00   768   0.506E+00    0.293E-01
DAV:   2    -0.849651050018E+02   -0.89908E-01   -0.46260E-01   920   0.208E+00    0.435E+00
DAV:   3    -0.848820925149E+02    0.83012E-01   -0.45345E-01   936   0.203E+00    0.506E-01
DAV:   4    -0.848828457966E+02   -0.75328E-03   -0.73924E-03   904   0.457E-01    0.869E-01
DAV:   5    -0.848808165382E+02    0.20293E-02   -0.16203E-03   800   0.181E-01    0.588E-01
DAV:   6    -0.848807618757E+02    0.54663E-04   -0.24358E-02   880   0.530E-01    0.543E-01
DAV:   7    -0.848791315206E+02    0.16304E-02   -0.80452E-03   752   0.314E-01    0.135E-01
DAV:   8    -0.848791773912E+02   -0.45871E-04   -0.17731E-03   800   0.128E-01    0.142E-01
DAV:   9    -0.848792279558E+02   -0.50565E-04   -0.41901E-04   408   0.598E-02
  98 F= -.84879228E+02 E0= -.84854366E+02  d E =-.198335E-03
 curvature:  -2.62 expect dE=-0.145E-01 dE for cont linesearch -0.893E-05
 trial: gam= 2.20377 g(F)=  0.552E-02 g(S)=  0.000E+00 ort = 0.154E-03 (trialstep = 0.142E+00)
 search vector abs. value=  0.398E-01
 bond charge predicted
       N       E                     dE             d eps       ncg     rms          rms(c)
DAV:   1    -0.848792736062E+02   -0.96215E-04   -0.20828E-01   768   0.115E+00    0.641E-02
DAV:   2    -0.848809302916E+02   -0.16567E-02   -0.86887E-03   848   0.299E-01    0.590E-01
DAV:   3    -0.848796378252E+02    0.12925E-02   -0.10875E-02   776   0.303E-01    0.206E-01
DAV:   4    -0.848797736463E+02   -0.13582E-03   -0.27028E-04   560   0.892E-02    0.225E-01
DAV:   5    -0.848795494850E+02    0.22416E-03   -0.25383E-04   472   0.785E-02    0.105E-01
DAV:   6    -0.848795167264E+02    0.32759E-04   -0.25913E-04   456   0.608E-02
  99 F= -.84879517E+02 E0= -.84854400E+02  d E =-.288771E-03
 ZBRENT: can't locate minimum, use default step
 trial-energy change:   -0.000289  1 .order   -0.000805   -0.000833   -0.000777
 step:   0.5688(harm=  2.1166)  dis= 0.00081  next Energy=   -84.885429 (dE=-0.620E-02)
 bond charge predicted
       N       E                     dE             d eps       ncg     rms          rms(c)
DAV:   1    -0.848790420430E+02    0.50744E-03   -0.18764E+00   768   0.344E+00    0.128E-01
DAV:   2    -0.848869776501E+02   -0.79356E-02   -0.47911E-02   816   0.714E-01    0.122E+00
DAV:   3    -0.848813372760E+02    0.56404E-02   -0.38578E-02   864   0.562E-01    0.258E-01
DAV:   4    -0.848815754493E+02   -0.23817E-03   -0.92795E-04   840   0.143E-01    0.325E-01
DAV:   5    -0.848810421319E+02    0.53332E-03   -0.17884E-03   560   0.165E-01    0.962E-02
DAV:   6    -0.848814164412E+02   -0.37431E-03   -0.20618E-03   560   0.158E-01    0.276E-01
DAV:   7    -0.848810191856E+02    0.39726E-03   -0.28908E-03   544   0.195E-01    0.104E-01
DAV:   8    -0.848809748750E+02    0.44311E-04   -0.46327E-04   592   0.807E-02
 100 F= -.84880975E+02 E0= -.84855683E+02  d E =-.174692E-02
 curvature:  -2.77 expect dE=-0.204E-01 dE for cont linesearch -0.217E-02
 ZBRENT: increasing intervall
 opt :   1.4220  next Energy=   -84.885849 (dE=-0.662E-02)
 bond charge predicted
       N       E                     dE             d eps       ncg     rms          rms(c)
DAV:   1    -0.848747891019E+02    0.62301E-02   -0.75082E+00   768   0.688E+00    0.220E-01
DAV:   2    -0.848851535848E+02   -0.10364E-01   -0.91609E-02   808   0.104E+00    0.760E-01
DAV:   3    -0.848838435354E+02    0.13100E-02   -0.24775E-02   848   0.473E-01    0.461E-01
DAV:   4    -0.848831213477E+02    0.72219E-03   -0.50123E-03   800   0.189E-01    0.208E-01
DAV:   5    -0.848834187217E+02   -0.29737E-03   -0.19110E-03   608   0.196E-01    0.365E-01
DAV:   6    -0.848841975623E+02   -0.77884E-03   -0.22495E-03   800   0.210E-01    0.525E-01
DAV:   7    -0.848827150316E+02    0.14825E-02   -0.87694E-03   840   0.347E-01    0.159E-01
DAV:   8    -0.848829180079E+02   -0.20298E-03   -0.83932E-04   736   0.107E-01    0.225E-01
DAV:   9    -0.848826923870E+02    0.22562E-03   -0.19606E-03   504   0.159E-01    0.936E-02
DAV:  10    -0.848826620325E+02    0.30354E-04   -0.17371E-04   448   0.500E-02
 101 F= -.84882662E+02 E0= -.84857088E+02  d E =-.343408E-02
 curvature:  -6.22 expect dE=-0.754E-01 dE for cont linesearch -0.212E-03
 trial: gam= 1.18174 g(F)=  0.121E-01 g(S)=  0.000E+00 ort = 0.116E-02 (trialstep = 0.225E+00)
 search vector abs. value=  0.705E-01
 bond charge predicted
       N       E                     dE             d eps       ncg     rms          rms(c)
DAV:   1    -0.848835330714E+02   -0.84068E-03   -0.92721E-01   768   0.246E+00    0.942E-02
DAV:   2    -0.848847208706E+02   -0.11878E-02   -0.11440E-02   784   0.366E-01    0.232E-01
DAV:   3    -0.848861417394E+02   -0.14209E-02   -0.12232E-02   816   0.312E-01    0.631E-01
DAV:   4    -0.848847092019E+02    0.14325E-02   -0.10713E-02   712   0.330E-01    0.151E-01
DAV:   5    -0.848846715490E+02    0.37653E-04   -0.20932E-03   464   0.149E-01    0.187E-01
DAV:   6    -0.848849499810E+02   -0.27843E-03   -0.37023E-04   528   0.924E-02    0.280E-01
DAV:   7    -0.848845456243E+02    0.40436E-03   -0.80448E-04   480   0.115E-01    0.732E-02
DAV:   8    -0.848845787407E+02   -0.33116E-04   -0.56278E-04   464   0.923E-02
 102 F= -.84884579E+02 E0= -.84858701E+02  d E =-.191671E-02
 ZBRENT: can't locate minimum, use default step
 trial-energy change:   -0.001917  1 .order   -0.002902   -0.003038   -0.002765
 step:   0.8997(harm=  2.4998)  dis= 0.00899  next Energy=   -84.899545 (dE=-0.169E-01)
 bond charge predicted
       N       E                     dE             d eps       ncg     rms          rms(c)
DAV:   1    -0.848807497896E+02    0.37958E-02   -0.83603E+00   768   0.740E+00    0.257E-01
DAV:   2    -0.849532911982E+02   -0.72541E-01   -0.38029E-01   888   0.206E+00    0.370E+00
DAV:   3    -0.848989241445E+02    0.54367E-01   -0.13054E-01   840   0.115E+00    0.117E+00
DAV:   4    -0.848900827717E+02    0.88414E-02   -0.30010E-02   920   0.702E-01    0.254E-01
DAV:   5    -0.848900894243E+02   -0.66526E-05   -0.62806E-03   856   0.322E-01    0.323E-01
DAV:   6    -0.848911325063E+02   -0.10431E-02   -0.46176E-03   752   0.265E-01    0.618E-01
DAV:   7    -0.848915842991E+02   -0.45179E-03   -0.11528E-03   840   0.112E-01    0.728E-01
DAV:   8    -0.848892948821E+02    0.22894E-02   -0.76036E-03   848   0.284E-01    0.115E-01
DAV:   9    -0.848894398519E+02   -0.14497E-03   -0.14483E-03   608   0.158E-01    0.192E-01
DAV:  10    -0.848893840879E+02    0.55764E-04   -0.14133E-04   424   0.404E-02
 103 F= -.84889384E+02 E0= -.84862945E+02  d E =-.672206E-02
 curvature:  -3.30 expect dE=-0.155E-01 dE for cont linesearch -0.290E-02
 ZBRENT: increasing intervall
 opt :   2.2493  next Energy=   -84.894050 (dE=-0.114E-01)
 bond charge predicted
       N       E                     dE             d eps       ncg     rms          rms(c)
DAV:   1    -0.848353064594E+02    0.54133E-01   -0.33474E+01   768   0.148E+01    0.515E-01
DAV:   2    -0.850671111279E+02   -0.23180E+00   -0.12368E+00   856   0.390E+00    0.586E+00
DAV:   3    -0.849120930315E+02    0.15502E+00   -0.28950E-01   832   0.190E+00    0.244E+00
DAV:   4    -0.848791189072E+02    0.32974E-01   -0.48842E-02   928   0.104E+00    0.113E+00
DAV:   5    -0.848729063884E+02    0.62125E-02   -0.40378E-02   848   0.867E-01    0.575E-01
DAV:   6    -0.848757790884E+02   -0.28727E-02   -0.32050E-02   888   0.577E-01    0.112E+00
DAV:   7    -0.848927556830E+02   -0.16977E-01   -0.24904E-02   912   0.655E-01    0.205E+00
DAV:   8    -0.848725134531E+02    0.20242E-01   -0.15615E-01  1056   0.139E+00    0.762E-01
DAV:   9    -0.848710370498E+02    0.14764E-02   -0.64372E-03   824   0.214E-01    0.469E-01
DAV:  10    -0.848701934428E+02    0.84361E-03   -0.85314E-04   504   0.109E-01    0.319E-01
DAV:  11    -0.848697319517E+02    0.46149E-03   -0.62691E-04   480   0.877E-02    0.171E-01
DAV:  12    -0.848696064920E+02    0.12546E-03   -0.19201E-03   616   0.141E-01    0.187E-01
DAV:  13    -0.848695990376E+02    0.74544E-05   -0.20554E-04   440   0.633E-02
 104 F= -.84869599E+02 E0= -.84842948E+02  d E =0.130630E-01
 curvature:  -5.31 expect dE=-0.739E-01 dE for cont linesearch -0.501E-02
 ZBRENT: bracketing found
 ZBRENT: interpolating
 opt :   1.5627  next Energy=   -84.891994 (dE=-0.933E-02)
 bond charge predicted
       N       E                     dE             d eps       ncg     rms          rms(c)
DAV:   1    -0.848757680669E+02   -0.61616E-02   -0.86589E+00   768   0.756E+00    0.254E-01
DAV:   2    -0.848978213087E+02   -0.22053E-01   -0.13930E-01   808   0.137E+00    0.165E+00
DAV:   3    -0.848898447215E+02    0.79766E-02   -0.18529E-02   800   0.401E-01    0.831E-01
DAV:   4    -0.848861871687E+02    0.36576E-02   -0.36191E-02   944   0.705E-01    0.448E-01
DAV:   5    -0.848855928878E+02    0.59428E-03   -0.14917E-03   840   0.146E-01    0.302E-01
DAV:   6    -0.848875126817E+02   -0.19198E-02   -0.15880E-02   832   0.475E-01    0.806E-01
DAV:   7    -0.848855355025E+02    0.19772E-02   -0.30209E-03   856   0.174E-01    0.390E-01
DAV:   8    -0.848843624826E+02    0.11730E-02   -0.58989E-03   832   0.289E-01    0.128E-01
DAV:   9    -0.848845053196E+02   -0.14284E-03   -0.11068E-03   832   0.119E-01    0.181E-01
DAV:  10    -0.848844032801E+02    0.10204E-03   -0.23670E-04   472   0.656E-02    0.126E-01
DAV:  11    -0.848843794363E+02    0.23844E-04   -0.47755E-05   384   0.223E-02
 105 F= -.84884379E+02 E0= -.84857984E+02  d E =-.171740E-02
 curvature:  -2.77 expect dE=-0.256E-01 dE for cont linesearch -0.248E-02
 ZBRENT: interpolating
 opt :   1.2297  next Energy=   -84.890683 (dE=-0.802E-02)
 bond charge predicted
       N       E                     dE             d eps       ncg     rms          rms(c)
DAV:   1    -0.848866984986E+02   -0.22952E-02   -0.20351E+00   768   0.365E+00    0.147E-01
DAV:   2    -0.849132777166E+02   -0.26579E-01   -0.10739E-01   888   0.117E+00    0.239E+00
DAV:   3    -0.848920508859E+02    0.21227E-01   -0.62933E-02   848   0.679E-01    0.650E-01
DAV:   4    -0.848893634697E+02    0.26874E-02   -0.16573E-02   872   0.515E-01    0.296E-01
DAV:   5    -0.848891247814E+02    0.23869E-03   -0.10941E-03   800   0.135E-01    0.158E-01
DAV:   6    -0.848898222031E+02   -0.69742E-03   -0.67646E-03   680   0.302E-01    0.476E-01
DAV:   7    -0.848891608252E+02    0.66138E-03   -0.67877E-04   488   0.989E-02    0.277E-01
DAV:   8    -0.848888620115E+02    0.29881E-03   -0.20705E-03   632   0.146E-01    0.105E-01
DAV:   9    -0.848888704003E+02   -0.83888E-05   -0.19610E-04   424   0.455E-02
 106 F= -.84888870E+02 E0= -.84862542E+02  d E =-.620837E-02
 curvature:  -1.45 expect dE=-0.817E-02 dE for cont linesearch -0.448E-05
 trial: gam= 0.25660 g(F)=  0.563E-02 g(S)=  0.000E+00 ort = 0.466E-03 (trialstep = 0.426E+00)
 search vector abs. value=  0.105E-01
 bond charge predicted
       N       E                     dE             d eps       ncg     rms          rms(c)
DAV:   1    -0.848892595793E+02   -0.39757E-03   -0.50385E-01   768   0.184E+00    0.841E-02
DAV:   2    -0.848947141579E+02   -0.54546E-02   -0.25556E-02   824   0.516E-01    0.113E+00
DAV:   3    -0.848903618752E+02    0.43523E-02   -0.43490E-02   896   0.545E-01    0.331E-01
DAV:   4    -0.848898741442E+02    0.48773E-03   -0.12682E-03   600   0.123E-01    0.117E-01
DAV:   5    -0.848897785757E+02    0.95568E-04   -0.26619E-04   464   0.739E-02
 107 F= -.84889779E+02 E0= -.84863502E+02  d E =-.908175E-03
 trial-energy change:   -0.000908  1 .order   -0.001866   -0.002447   -0.001284
 step:   0.8962(harm=  0.8962)  dis= 0.00534  next Energy=   -84.891445 (dE=-0.257E-02)
 bond charge predicted
       N       E                     dE             d eps       ncg     rms          rms(c)
DAV:   1    -0.848885790593E+02    0.12951E-02   -0.61589E-01   768   0.204E+00    0.191E-01
DAV:   2    -0.849527496511E+02   -0.64171E-01   -0.22600E-01  1032   0.162E+00    0.377E+00
DAV:   3    -0.848928051371E+02    0.59945E-01   -0.45070E-01  1064   0.165E+00    0.552E-01
DAV:   4    -0.848909261973E+02    0.18789E-02   -0.27696E-03   912   0.255E-01    0.547E-01
DAV:   5    -0.848890738353E+02    0.18524E-02   -0.45080E-03   680   0.266E-01    0.102E-01
DAV:   6    -0.848890844666E+02   -0.10631E-04   -0.51820E-04   608   0.103E-01
 108 F= -.84889084E+02 E0= -.84862751E+02  d E =-.214066E-03
 curvature:  -0.82 expect dE=-0.135E-02 dE for cont linesearch -0.605E-06
 trial: gam= 0.12929 g(F)=  0.165E-02 g(S)=  0.000E+00 ort = 0.881E-04 (trialstep = 0.520E+00)
 search vector abs. value=  0.185E-02
 bond charge predicted
       N       E                     dE             d eps       ncg     rms          rms(c)
DAV:   1    -0.848897568697E+02   -0.68303E-03   -0.13276E-01   768   0.953E-01    0.892E-02
DAV:   2    -0.848917652559E+02   -0.20084E-02   -0.83799E-03   856   0.364E-01    0.594E-01
DAV:   3    -0.848915860596E+02    0.17920E-03   -0.22198E-02   912   0.436E-01    0.646E-01
DAV:   4    -0.848898846595E+02    0.17014E-02   -0.93945E-03   776   0.288E-01    0.114E-01
DAV:   5    -0.848899560665E+02   -0.71407E-04   -0.19470E-04   480   0.655E-02
 109 F= -.84889956E+02 E0= -.84863597E+02  d E =-.871600E-03
 trial-energy change:   -0.000872  1 .order   -0.000687   -0.000864   -0.000510
 step:   1.2690(harm=  1.2690)  dis= 0.00323  next Energy=   -84.890139 (dE=-0.105E-02)
 bond charge predicted
       N       E                     dE             d eps       ncg     rms          rms(c)
DAV:   1    -0.848902075529E+02   -0.32289E-03   -0.27552E-01   768   0.137E+00    0.121E-01
DAV:   2    -0.849429658154E+02   -0.52758E-01   -0.17955E-01  1080   0.150E+00    0.340E+00
DAV:   3    -0.848933974840E+02    0.49568E-01   -0.20313E-01  1056   0.114E+00    0.364E-01
DAV:   4    -0.848902711139E+02    0.31264E-02   -0.35870E-03   912   0.312E-01    0.637E-02
DAV:   5    -0.848904342085E+02   -0.16309E-03   -0.64140E-04   624   0.102E-01    0.132E-01
DAV:   6    -0.848904767048E+02   -0.42496E-04   -0.23270E-04   480   0.786E-02
 110 F= -.84890477E+02 E0= -.84864097E+02  d E =-.139224E-02
 curvature:  -0.71 expect dE=-0.360E-03 dE for cont linesearch -0.361E-06
 trial: gam= 0.26400 g(F)=  0.510E-03 g(S)=  0.000E+00 ort = 0.307E-04 (trialstep = 0.670E+00)
 search vector abs. value=  0.655E-03
 bond charge predicted
       N       E                     dE             d eps       ncg     rms          rms(c)
DAV:   1    -0.848906658409E+02   -0.23163E-03   -0.77446E-02   768   0.729E-01    0.203E-01
DAV:   2    -0.849939753569E+02   -0.10331E+00   -0.48858E-01  1152   0.213E+00    0.464E+00
DAV:   3    -0.848932637804E+02    0.10071E+00   -0.40021E-01  1176   0.194E+00    0.224E-01
DAV:   4    -0.848906140384E+02    0.26497E-02   -0.45650E-03   872   0.311E-01    0.154E-01
DAV:   5    -0.848909844422E+02   -0.37040E-03   -0.10281E-03   648   0.126E-01    0.282E-01
DAV:   6    -0.848905516376E+02    0.43280E-03   -0.14014E-03   488   0.140E-01    0.292E-02
DAV:   7    -0.848905916434E+02   -0.40006E-04   -0.15803E-04   472   0.503E-02
 111 F= -.84890592E+02 E0= -.84864553E+02  d E =-.114939E-03
 trial-energy change:   -0.000115  1 .order   -0.000256   -0.000347   -0.000166
 step:   1.2818(harm=  1.2818)  dis= 0.00322  next Energy=   -84.890808 (dE=-0.332E-03)
 bond charge predicted
       N       E                     dE             d eps       ncg     rms          rms(c)
DAV:   1    -0.848905317768E+02    0.19861E-04   -0.64777E-02   768   0.667E-01    0.484E-02
DAV:   2    -0.848917278712E+02   -0.11961E-02   -0.57086E-03   856   0.237E-01    0.542E-01
DAV:   3    -0.848907369695E+02    0.99090E-03   -0.82977E-03   640   0.264E-01    0.195E-01
DAV:   4    -0.848906074567E+02    0.12951E-03   -0.10328E-03   480   0.938E-02    0.478E-02
DAV:   5    -0.848905986656E+02    0.87911E-05   -0.34049E-05   392   0.272E-02
 112 F= -.84890599E+02 E0= -.84864404E+02  d E =-.121961E-03
 curvature:  -0.81 expect dE=-0.172E-03 dE for cont linesearch -0.329E-06
 trial: gam= 0.41046 g(F)=  0.212E-03 g(S)=  0.000E+00 ort =-0.163E-04 (trialstep = 0.792E+00)
 search vector abs. value=  0.309E-03
 bond charge predicted
       N       E                     dE             d eps       ncg     rms          rms(c)
DAV:   1    -0.848905160108E+02    0.91446E-04   -0.51053E-02   768   0.591E-01    0.419E-02
DAV:   2    -0.848907238815E+02   -0.20787E-03   -0.12165E-03   792   0.142E-01    0.134E-01
DAV:   3    -0.848906309313E+02    0.92950E-04   -0.11976E-03   576   0.127E-01    0.136E-01
DAV:   4    -0.848905642578E+02    0.66673E-04   -0.25495E-04   448   0.504E-02
 113 F= -.84890564E+02 E0= -.84864245E+02  d E =0.344077E-04
 trial-energy change:    0.000034  1 .order   -0.000107   -0.000163   -0.000052
 step:   1.1598(harm=  1.1598)  dis= 0.00138  next Energy=   -84.890718 (dE=-0.119E-03)
 reached required accuracy - stopping structural energy minimisation
