       N       E                     dE             d eps       ncg     rms          rms(c)
DAV:   1     0.198561823079E+02    0.19856E+02   -0.35953E+03  7448   0.442E+02
DAV:   2    -0.551448807431E+01   -0.25371E+02   -0.24270E+02  7624   0.117E+02
DAV:   3    -0.575974216967E+01   -0.24525E+00   -0.24452E+00  7696   0.104E+01
DAV:   4    -0.576070655988E+01   -0.96439E-03   -0.96434E-03  7644   0.758E-01
DAV:   5    -0.576071367963E+01   -0.71198E-05   -0.71208E-05  7600   0.591E-02    0.125E+01
DAV:   6    -0.545873009019E+01    0.30198E+00   -0.59446E-01  6792   0.591E+00    0.680E+00
DAV:   7    -0.541928519282E+01    0.39445E-01   -0.14377E-01  7428   0.290E+00    0.242E+00
DAV:   8    -0.541636887831E+01    0.29163E-02   -0.60381E-03  6952   0.591E-01    0.604E-01
DAV:   9    -0.541615627743E+01    0.21260E-03   -0.13366E-04  7076   0.940E-02    0.776E-02
DAV:  10    -0.541615850517E+01   -0.22277E-05   -0.58165E-06  3468   0.198E-02
   1 F= -.54161585E+01 E0= -.54147634E+01  d E =-.279013E-02
