<?xml version="1.0" encoding="ISO-8859-1"?>
<modeling>
 <generator>
  <i name="program" type="string">vasp </i>
  <i name="version" type="string">6.2.0  </i>
  <i name="subversion" type="string">18Jan21 (build Feb  1 2022 01:28:57) complex                          parallel </i>
  <i name="platform" type="string">LinuxPGI </i>
  <i name="date" type="string">2022 05 11 </i>
  <i name="time" type="string">17:35:21 </i>
 </generator>
 <incar>
  <i type="string" name="PREC">Normal</i>
  <i type="string" name="ALGO">38</i>
  <i type="int" name="ISPIN">     1</i>
  <i type="int" name="NELM">    60</i>
  <i type="int" name="NELMIN">     4</i>
  <i type="int" name="IBRION">     2</i>
  <i name="EDIFF">      0.00010000</i>
  <i name="EDIFFG">     -0.03000000</i>
  <i type="int" name="NSW">     0</i>
  <i type="int" name="ISIF">     0</i>
  <i type="int" name="ISYM">     0</i>
  <i name="SYMPREC">      0.00000100</i>
  <i name="ENCUT">    280.00000000</i>
  <i type="logical" name="LREAL"> F  </i>
  <i type="int" name="ISMEAR">     0</i>
  <i name="SIGMA">      0.05000000</i>
  <i type="logical" name="LWAVE"> F  </i>
  <i type="logical" name="LVTOT"> F  </i>
  <i type="int" name="LORBIT">    11</i>
  <i type="logical" name="LASPH"> F  </i>
  <i type="string" name="GGA">RP</i>
 </incar>
 <primitive_cell>
  <structure name="primitive_cell" >
   <crystal>
    <varray name="basis" >
     <v>       2.40252100       0.00000000       1.38709600 </v>
     <v>       0.80084000       2.26511800       1.38709600 </v>
     <v>       0.00000000       0.00000000       2.77419200 </v>
    </varray>
    <i name="volume">     15.09713501 </i>
    <varray name="rec_basis" >
     <v>       0.41622945      -0.14715931       0.00000000 </v>
     <v>       0.00000000       0.44147810       0.00000000 </v>
     <v>      -0.20811473      -0.14715940       0.36046532 </v>
    </varray>
   </crystal>
   <varray name="positions" >
    <v>       0.00000000       0.00000000       0.00000000 </v>
   </varray>
  </structure>
  <varray name="primitive_index" >
   <v type="int" >        1 </v>
  </varray>
 </primitive_cell>
 <kpoints>
  <generation param="Gamma">
   <v type="int" name="divisions">       8        8        8 </v>
   <v name="usershift">      0.00000000       0.00000000       0.00000000 </v>
   <v name="genvec1">      0.12500000      -0.00000000       0.00000000 </v>
   <v name="genvec2">      0.00000000       0.12500000       0.00000000 </v>
   <v name="genvec3">      0.00000000       0.00000000       0.12500000 </v>
   <v name="shift">      0.00000000       0.00000000       0.00000000 </v>
  </generation>
  <varray name="kpointlist" >
   <v>       0.00000000       0.00000000       0.00000000 </v>
   <v>       0.12500000       0.00000000       0.00000000 </v>
   <v>       0.00000000       0.12500000       0.00000000 </v>
   <v>       0.00000000       0.00000000       0.12500000 </v>
   <v>       0.12500000       0.12500000       0.12500000 </v>
   <v>       0.25000000       0.00000000       0.00000000 </v>
   <v>       0.00000000       0.25000000       0.00000000 </v>
   <v>       0.00000000       0.00000000       0.25000000 </v>
   <v>       0.25000000       0.25000000       0.25000000 </v>
   <v>       0.37500000       0.00000000       0.00000000 </v>
   <v>       0.00000000       0.37500000       0.00000000 </v>
   <v>       0.00000000       0.00000000       0.37500000 </v>
   <v>       0.37500000       0.37500000       0.37500000 </v>
   <v>       0.50000000       0.00000000       0.00000000 </v>
   <v>       0.00000000       0.50000000       0.00000000 </v>
   <v>       0.00000000       0.00000000       0.50000000 </v>
   <v>       0.50000000       0.50000000       0.50000000 </v>
   <v>       0.12500000       0.12500000       0.00000000 </v>
   <v>       0.00000000       0.12500000       0.12500000 </v>
   <v>       0.12500000       0.00000000       0.12500000 </v>
   <v>       0.25000000       0.12500000       0.00000000 </v>
   <v>       0.00000000       0.25000000       0.12500000 </v>
   <v>       0.12500000       0.00000000       0.25000000 </v>
   <v>       0.12500000       0.12500000      -0.12500000 </v>
   <v>       0.25000000       0.12500000       0.25000000 </v>
   <v>       0.12500000       0.25000000       0.00000000 </v>
   <v>       0.12500000      -0.12500000      -0.12500000 </v>
   <v>       0.25000000       0.25000000       0.12500000 </v>
   <v>       0.00000000       0.12500000       0.25000000 </v>
   <v>      -0.12500000       0.12500000      -0.12500000 </v>
   <v>       0.12500000       0.25000000       0.25000000 </v>
   <v>       0.25000000       0.00000000       0.12500000 </v>
   <v>       0.37500000       0.12500000       0.00000000 </v>
   <v>       0.00000000       0.37500000       0.12500000 </v>
   <v>       0.12500000       0.00000000       0.37500000 </v>
   <v>       0.12500000       0.12500000      -0.25000000 </v>
   <v>       0.37500000       0.25000000       0.37500000 </v>
   <v>       0.12500000       0.37500000       0.00000000 </v>
   <v>       0.25000000      -0.12500000      -0.12500000 </v>
   <v>       0.37500000       0.37500000       0.25000000 </v>
   <v>       0.00000000       0.12500000       0.37500000 </v>
   <v>      -0.12500000       0.25000000      -0.12500000 </v>
   <v>       0.25000000       0.37500000       0.37500000 </v>
   <v>       0.37500000       0.00000000       0.12500000 </v>
   <v>       0.50000000       0.12500000       0.00000000 </v>
   <v>       0.00000000       0.50000000       0.12500000 </v>
   <v>       0.12500000       0.00000000       0.50000000 </v>
   <v>       0.12500000       0.12500000      -0.37500000 </v>
   <v>       0.50000000       0.37500000       0.50000000 </v>
   <v>       0.12500000       0.50000000       0.00000000 </v>
   <v>       0.37500000      -0.12500000      -0.12500000 </v>
   <v>       0.50000000       0.50000000       0.37500000 </v>
   <v>       0.00000000       0.12500000       0.50000000 </v>
   <v>      -0.12500000       0.37500000      -0.12500000 </v>
   <v>       0.37500000       0.50000000       0.50000000 </v>
   <v>       0.50000000       0.00000000       0.12500000 </v>
   <v>      -0.37500000       0.12500000       0.00000000 </v>
   <v>       0.00000000      -0.37500000       0.12500000 </v>
   <v>       0.12500000       0.00000000      -0.37500000 </v>
   <v>       0.12500000       0.12500000       0.50000000 </v>
   <v>      -0.37500000       0.50000000      -0.37500000 </v>
   <v>       0.12500000      -0.37500000       0.00000000 </v>
   <v>       0.50000000      -0.12500000      -0.12500000 </v>
   <v>      -0.37500000      -0.37500000       0.50000000 </v>
   <v>       0.00000000       0.12500000      -0.37500000 </v>
   <v>      -0.12500000       0.50000000      -0.12500000 </v>
   <v>       0.50000000      -0.37500000      -0.37500000 </v>
   <v>      -0.37500000       0.00000000       0.12500000 </v>
   <v>      -0.25000000       0.12500000       0.00000000 </v>
   <v>       0.00000000      -0.25000000       0.12500000 </v>
   <v>       0.12500000       0.00000000      -0.25000000 </v>
   <v>       0.12500000       0.12500000       0.37500000 </v>
   <v>      -0.25000000      -0.37500000      -0.25000000 </v>
   <v>       0.12500000      -0.25000000       0.00000000 </v>
   <v>      -0.37500000      -0.12500000      -0.12500000 </v>
   <v>      -0.25000000      -0.25000000      -0.37500000 </v>
   <v>       0.00000000       0.12500000      -0.25000000 </v>
   <v>      -0.12500000      -0.37500000      -0.12500000 </v>
   <v>      -0.37500000      -0.25000000      -0.25000000 </v>
   <v>      -0.25000000       0.00000000       0.12500000 </v>
   <v>      -0.12500000       0.12500000       0.00000000 </v>
   <v>       0.00000000      -0.12500000       0.12500000 </v>
   <v>       0.12500000       0.00000000      -0.12500000 </v>
   <v>       0.12500000       0.12500000       0.25000000 </v>
   <v>      -0.12500000      -0.25000000      -0.12500000 </v>
   <v>      -0.25000000      -0.12500000      -0.12500000 </v>
   <v>       0.25000000       0.25000000       0.00000000 </v>
   <v>       0.00000000       0.25000000       0.25000000 </v>
   <v>       0.25000000       0.00000000       0.25000000 </v>
   <v>       0.37500000       0.25000000       0.00000000 </v>
   <v>       0.00000000       0.37500000       0.25000000 </v>
   <v>       0.25000000       0.00000000       0.37500000 </v>
   <v>       0.25000000       0.25000000      -0.12500000 </v>
   <v>       0.37500000       0.12500000       0.37500000 </v>
   <v>       0.25000000       0.37500000       0.00000000 </v>
   <v>       0.12500000      -0.25000000      -0.25000000 </v>
   <v>       0.37500000       0.37500000       0.12500000 </v>
   <v>       0.00000000       0.25000000       0.37500000 </v>
   <v>      -0.25000000       0.12500000      -0.25000000 </v>
   <v>       0.12500000       0.37500000       0.37500000 </v>
   <v>       0.37500000       0.00000000       0.25000000 </v>
   <v>       0.50000000       0.25000000       0.00000000 </v>
   <v>       0.00000000       0.50000000       0.25000000 </v>
   <v>       0.25000000       0.00000000       0.50000000 </v>
   <v>       0.25000000       0.25000000      -0.25000000 </v>
   <v>       0.50000000       0.25000000       0.50000000 </v>
   <v>       0.25000000       0.50000000       0.00000000 </v>
   <v>       0.25000000      -0.25000000      -0.25000000 </v>
   <v>       0.50000000       0.50000000       0.25000000 </v>
   <v>       0.00000000       0.25000000       0.50000000 </v>
   <v>      -0.25000000       0.25000000      -0.25000000 </v>
   <v>       0.25000000       0.50000000       0.50000000 </v>
   <v>       0.50000000       0.00000000       0.25000000 </v>
   <v>      -0.37500000       0.25000000       0.00000000 </v>
   <v>       0.00000000      -0.37500000       0.25000000 </v>
   <v>       0.25000000       0.00000000      -0.37500000 </v>
   <v>       0.25000000       0.25000000      -0.37500000 </v>
   <v>      -0.37500000       0.37500000      -0.37500000 </v>
   <v>       0.25000000      -0.37500000       0.00000000 </v>
   <v>       0.37500000      -0.25000000      -0.25000000 </v>
   <v>      -0.37500000      -0.37500000       0.37500000 </v>
   <v>       0.00000000       0.25000000      -0.37500000 </v>
   <v>      -0.25000000       0.37500000      -0.25000000 </v>
   <v>       0.37500000      -0.37500000      -0.37500000 </v>
   <v>      -0.37500000       0.00000000       0.25000000 </v>
   <v>      -0.25000000       0.25000000       0.00000000 </v>
   <v>       0.00000000      -0.25000000       0.25000000 </v>
   <v>       0.25000000       0.00000000      -0.25000000 </v>
   <v>       0.25000000       0.25000000       0.50000000 </v>
   <v>      -0.25000000       0.50000000      -0.25000000 </v>
   <v>       0.50000000      -0.25000000      -0.25000000 </v>
   <v>       0.37500000       0.37500000       0.00000000 </v>
   <v>       0.00000000       0.37500000       0.37500000 </v>
   <v>       0.37500000       0.00000000       0.37500000 </v>
   <v>       0.50000000       0.37500000       0.00000000 </v>
   <v>       0.00000000       0.50000000       0.37500000 </v>
   <v>       0.37500000       0.00000000       0.50000000 </v>
   <v>       0.37500000       0.37500000      -0.12500000 </v>
   <v>       0.50000000       0.12500000       0.50000000 </v>
   <v>       0.37500000       0.50000000       0.00000000 </v>
   <v>       0.12500000      -0.37500000      -0.37500000 </v>
   <v>       0.50000000       0.50000000       0.12500000 </v>
   <v>       0.00000000       0.37500000       0.50000000 </v>
   <v>      -0.37500000       0.12500000      -0.37500000 </v>
   <v>       0.12500000       0.50000000       0.50000000 </v>
   <v>       0.50000000       0.00000000       0.37500000 </v>
   <v>      -0.37500000       0.37500000       0.00000000 </v>
   <v>       0.00000000      -0.37500000       0.37500000 </v>
   <v>       0.37500000       0.00000000      -0.37500000 </v>
   <v>       0.37500000       0.37500000      -0.25000000 </v>
   <v>      -0.37500000       0.25000000      -0.37500000 </v>
   <v>       0.25000000      -0.37500000      -0.37500000 </v>
   <v>       0.50000000       0.50000000       0.00000000 </v>
   <v>       0.00000000       0.50000000       0.50000000 </v>
   <v>       0.50000000       0.00000000       0.50000000 </v>
   <v>       0.37500000       0.25000000       0.12500000 </v>
   <v>       0.12500000       0.37500000       0.25000000 </v>
   <v>       0.25000000       0.12500000       0.37500000 </v>
   <v>       0.25000000       0.12500000      -0.12500000 </v>
   <v>       0.37500000       0.12500000       0.25000000 </v>
   <v>       0.12500000      -0.25000000      -0.12500000 </v>
   <v>       0.12500000       0.25000000      -0.12500000 </v>
   <v>       0.12500000      -0.12500000      -0.25000000 </v>
   <v>       0.25000000       0.37500000       0.12500000 </v>
   <v>      -0.12500000       0.12500000      -0.25000000 </v>
   <v>      -0.25000000       0.12500000      -0.12500000 </v>
   <v>       0.12500000       0.25000000       0.37500000 </v>
   <v>       0.50000000       0.25000000       0.12500000 </v>
   <v>       0.12500000       0.50000000       0.25000000 </v>
   <v>       0.25000000       0.12500000       0.50000000 </v>
   <v>       0.25000000       0.12500000      -0.25000000 </v>
   <v>       0.50000000       0.25000000       0.37500000 </v>
   <v>       0.12500000      -0.37500000      -0.12500000 </v>
   <v>       0.12500000       0.37500000      -0.12500000 </v>
   <v>       0.25000000      -0.12500000      -0.25000000 </v>
   <v>      -0.37500000      -0.25000000       0.50000000 </v>
   <v>       0.37500000       0.50000000       0.25000000 </v>
   <v>      -0.12500000       0.12500000      -0.37500000 </v>
   <v>      -0.25000000       0.25000000       0.12500000 </v>
   <v>      -0.12500000       0.12500000       0.37500000 </v>
   <v>      -0.25000000       0.25000000      -0.12500000 </v>
   <v>       0.50000000      -0.37500000      -0.25000000 </v>
   <v>       0.25000000       0.37500000       0.50000000 </v>
   <v>      -0.37500000      -0.12500000       0.12500000 </v>
   <v>       0.12500000      -0.25000000       0.25000000 </v>
   <v>       0.37500000      -0.12500000       0.12500000 </v>
   <v>      -0.12500000      -0.25000000       0.25000000 </v>
   <v>      -0.25000000       0.50000000      -0.37500000 </v>
   <v>       0.50000000      -0.12500000      -0.25000000 </v>
   <v>      -0.25000000       0.50000000      -0.12500000 </v>
   <v>      -0.12500000      -0.25000000       0.50000000 </v>
   <v>      -0.37500000       0.25000000       0.12500000 </v>
   <v>       0.12500000      -0.37500000       0.25000000 </v>
   <v>       0.25000000       0.12500000      -0.37500000 </v>
   <v>      -0.37500000       0.37500000       0.50000000 </v>
   <v>       0.12500000       0.50000000      -0.12500000 </v>
   <v>       0.37500000      -0.12500000      -0.25000000 </v>
   <v>       0.50000000      -0.37500000       0.37500000 </v>
   <v>      -0.12500000       0.12500000       0.50000000 </v>
   <v>      -0.25000000       0.37500000      -0.12500000 </v>
   <v>       0.37500000       0.50000000      -0.37500000 </v>
   <v>       0.50000000      -0.12500000       0.12500000 </v>
   <v>      -0.12500000      -0.25000000       0.37500000 </v>
   <v>       0.50000000       0.37500000       0.12500000 </v>
   <v>       0.12500000       0.50000000       0.37500000 </v>
   <v>       0.37500000       0.12500000       0.50000000 </v>
   <v>       0.37500000       0.25000000      -0.12500000 </v>
   <v>       0.50000000       0.12500000       0.37500000 </v>
   <v>       0.12500000      -0.37500000      -0.25000000 </v>
   <v>       0.25000000       0.37500000      -0.12500000 </v>
   <v>       0.12500000      -0.25000000      -0.37500000 </v>
   <v>       0.37500000       0.50000000       0.12500000 </v>
   <v>      -0.25000000       0.12500000      -0.37500000 </v>
   <v>      -0.37500000       0.12500000      -0.25000000 </v>
   <v>       0.12500000       0.37500000       0.50000000 </v>
   <v>      -0.37500000       0.37500000       0.12500000 </v>
   <v>       0.12500000      -0.37500000       0.37500000 </v>
   <v>       0.37500000       0.12500000      -0.37500000 </v>
   <v>       0.37500000       0.25000000      -0.25000000 </v>
   <v>      -0.37500000       0.25000000       0.50000000 </v>
   <v>       0.12500000       0.50000000      -0.25000000 </v>
   <v>       0.25000000       0.50000000      -0.12500000 </v>
   <v>       0.25000000      -0.25000000      -0.37500000 </v>
   <v>       0.50000000      -0.25000000       0.37500000 </v>
   <v>       0.50000000      -0.37500000       0.25000000 </v>
   <v>      -0.25000000       0.12500000       0.50000000 </v>
   <v>      -0.25000000       0.37500000       0.25000000 </v>
   <v>      -0.12500000       0.25000000       0.50000000 </v>
   <v>      -0.37500000       0.25000000      -0.25000000 </v>
   <v>       0.37500000       0.50000000      -0.25000000 </v>
   <v>       0.25000000       0.50000000      -0.37500000 </v>
   <v>       0.50000000      -0.25000000       0.12500000 </v>
   <v>       0.25000000      -0.25000000       0.37500000 </v>
   <v>       0.50000000      -0.12500000       0.25000000 </v>
   <v>      -0.25000000      -0.37500000       0.25000000 </v>
   <v>      -0.25000000       0.37500000       0.50000000 </v>
   <v>       0.37500000      -0.12500000      -0.37500000 </v>
   <v>      -0.37500000       0.37500000      -0.12500000 </v>
   <v>      -0.12500000      -0.37500000       0.37500000 </v>
   <v>      -0.25000000       0.37500000       0.12500000 </v>
   <v>       0.12500000      -0.25000000       0.37500000 </v>
   <v>       0.37500000       0.12500000      -0.25000000 </v>
   <v>       0.37500000       0.25000000      -0.37500000 </v>
   <v>      -0.25000000       0.37500000      -0.37500000 </v>
   <v>       0.12500000       0.37500000      -0.25000000 </v>
   <v>       0.37500000      -0.25000000      -0.37500000 </v>
   <v>       0.37500000      -0.37500000       0.25000000 </v>
   <v>      -0.25000000       0.12500000       0.37500000 </v>
   <v>      -0.37500000       0.37500000       0.25000000 </v>
   <v>       0.25000000       0.37500000      -0.37500000 </v>
   <v>       0.37500000      -0.25000000       0.12500000 </v>
   <v>      -0.37500000       0.50000000       0.12500000 </v>
   <v>       0.12500000      -0.37500000       0.50000000 </v>
   <v>       0.50000000       0.12500000      -0.37500000 </v>
   <v>       0.50000000       0.37500000      -0.12500000 </v>
   <v>      -0.37500000       0.12500000       0.50000000 </v>
   <v>       0.12500000       0.50000000      -0.37500000 </v>
   <v>      -0.25000000       0.50000000       0.25000000 </v>
   <v>       0.25000000      -0.25000000       0.50000000 </v>
   <v>       0.50000000       0.25000000      -0.25000000 </v>
  </varray>
  <varray name="weights" >
   <v>       0.00195313 </v>
   <v>       0.00390625 </v>
   <v>       0.00390625 </v>
   <v>       0.00390625 </v>
   <v>       0.00390625 </v>
   <v>       0.00390625 </v>
   <v>       0.00390625 </v>
   <v>       0.00390625 </v>
   <v>       0.00390625 </v>
   <v>       0.00390625 </v>
   <v>       0.00390625 </v>
   <v>       0.00390625 </v>
   <v>       0.00390625 </v>
   <v>       0.00195313 </v>
   <v>       0.00195313 </v>
   <v>       0.00195313 </v>
   <v>       0.00195313 </v>
   <v>       0.00390625 </v>
   <v>       0.00390625 </v>
   <v>       0.00390625 </v>
   <v>       0.00390625 </v>
   <v>       0.00390625 </v>
   <v>       0.00390625 </v>
   <v>       0.00390625 </v>
   <v>       0.00390625 </v>
   <v>       0.00390625 </v>
   <v>       0.00390625 </v>
   <v>       0.00390625 </v>
   <v>       0.00390625 </v>
   <v>       0.00390625 </v>
   <v>       0.00390625 </v>
   <v>       0.00390625 </v>
   <v>       0.00390625 </v>
   <v>       0.00390625 </v>
   <v>       0.00390625 </v>
   <v>       0.00390625 </v>
   <v>       0.00390625 </v>
   <v>       0.00390625 </v>
   <v>       0.00390625 </v>
   <v>       0.00390625 </v>
   <v>       0.00390625 </v>
   <v>       0.00390625 </v>
   <v>       0.00390625 </v>
   <v>       0.00390625 </v>
   <v>       0.00390625 </v>
   <v>       0.00390625 </v>
   <v>       0.00390625 </v>
   <v>       0.00390625 </v>
   <v>       0.00390625 </v>
   <v>       0.00390625 </v>
   <v>       0.00390625 </v>
   <v>       0.00390625 </v>
   <v>       0.00390625 </v>
   <v>       0.00390625 </v>
   <v>       0.00390625 </v>
   <v>       0.00390625 </v>
   <v>       0.00390625 </v>
   <v>       0.00390625 </v>
   <v>       0.00390625 </v>
   <v>       0.00390625 </v>
   <v>       0.00390625 </v>
   <v>       0.00390625 </v>
   <v>       0.00390625 </v>
   <v>       0.00390625 </v>
   <v>       0.00390625 </v>
   <v>       0.00390625 </v>
   <v>       0.00390625 </v>
   <v>       0.00390625 </v>
   <v>       0.00390625 </v>
   <v>       0.00390625 </v>
   <v>       0.00390625 </v>
   <v>       0.00390625 </v>
   <v>       0.00390625 </v>
   <v>       0.00390625 </v>
   <v>       0.00390625 </v>
   <v>       0.00390625 </v>
   <v>       0.00390625 </v>
   <v>       0.00390625 </v>
   <v>       0.00390625 </v>
   <v>       0.00390625 </v>
   <v>       0.00390625 </v>
   <v>       0.00390625 </v>
   <v>       0.00390625 </v>
   <v>       0.00390625 </v>
   <v>       0.00390625 </v>
   <v>       0.00390625 </v>
   <v>       0.00390625 </v>
   <v>       0.00390625 </v>
   <v>       0.00390625 </v>
   <v>       0.00390625 </v>
   <v>       0.00390625 </v>
   <v>       0.00390625 </v>
   <v>       0.00390625 </v>
   <v>       0.00390625 </v>
   <v>       0.00390625 </v>
   <v>       0.00390625 </v>
   <v>       0.00390625 </v>
   <v>       0.00390625 </v>
   <v>       0.00390625 </v>
   <v>       0.00390625 </v>
   <v>       0.00390625 </v>
   <v>       0.00390625 </v>
   <v>       0.00390625 </v>
   <v>       0.00390625 </v>
   <v>       0.00390625 </v>
   <v>       0.00390625 </v>
   <v>       0.00390625 </v>
   <v>       0.00390625 </v>
   <v>       0.00390625 </v>
   <v>       0.00390625 </v>
   <v>       0.00390625 </v>
   <v>       0.00390625 </v>
   <v>       0.00390625 </v>
   <v>       0.00390625 </v>
   <v>       0.00390625 </v>
   <v>       0.00390625 </v>
   <v>       0.00390625 </v>
   <v>       0.00390625 </v>
   <v>       0.00390625 </v>
   <v>       0.00390625 </v>
   <v>       0.00390625 </v>
   <v>       0.00390625 </v>
   <v>       0.00390625 </v>
   <v>       0.00390625 </v>
   <v>       0.00390625 </v>
   <v>       0.00390625 </v>
   <v>       0.00390625 </v>
   <v>       0.00390625 </v>
   <v>       0.00390625 </v>
   <v>       0.00390625 </v>
   <v>       0.00390625 </v>
   <v>       0.00390625 </v>
   <v>       0.00390625 </v>
   <v>       0.00390625 </v>
   <v>       0.00390625 </v>
   <v>       0.00390625 </v>
   <v>       0.00390625 </v>
   <v>       0.00390625 </v>
   <v>       0.00390625 </v>
   <v>       0.00390625 </v>
   <v>       0.00390625 </v>
   <v>       0.00390625 </v>
   <v>       0.00390625 </v>
   <v>       0.00390625 </v>
   <v>       0.00390625 </v>
   <v>       0.00390625 </v>
   <v>       0.00390625 </v>
   <v>       0.00390625 </v>
   <v>       0.00390625 </v>
   <v>       0.00390625 </v>
   <v>       0.00390625 </v>
   <v>       0.00390625 </v>
   <v>       0.00195313 </v>
   <v>       0.00195313 </v>
   <v>       0.00195313 </v>
   <v>       0.00390625 </v>
   <v>       0.00390625 </v>
   <v>       0.00390625 </v>
   <v>       0.00390625 </v>
   <v>       0.00390625 </v>
   <v>       0.00390625 </v>
   <v>       0.00390625 </v>
   <v>       0.00390625 </v>
   <v>       0.00390625 </v>
   <v>       0.00390625 </v>
   <v>       0.00390625 </v>
   <v>       0.00390625 </v>
   <v>       0.00390625 </v>
   <v>       0.00390625 </v>
   <v>       0.00390625 </v>
   <v>       0.00390625 </v>
   <v>       0.00390625 </v>
   <v>       0.00390625 </v>
   <v>       0.00390625 </v>
   <v>       0.00390625 </v>
   <v>       0.00390625 </v>
   <v>       0.00390625 </v>
   <v>       0.00390625 </v>
   <v>       0.00390625 </v>
   <v>       0.00390625 </v>
   <v>       0.00390625 </v>
   <v>       0.00390625 </v>
   <v>       0.00390625 </v>
   <v>       0.00390625 </v>
   <v>       0.00390625 </v>
   <v>       0.00390625 </v>
   <v>       0.00390625 </v>
   <v>       0.00390625 </v>
   <v>       0.00390625 </v>
   <v>       0.00390625 </v>
   <v>       0.00390625 </v>
   <v>       0.00390625 </v>
   <v>       0.00390625 </v>
   <v>       0.00390625 </v>
   <v>       0.00390625 </v>
   <v>       0.00390625 </v>
   <v>       0.00390625 </v>
   <v>       0.00390625 </v>
   <v>       0.00390625 </v>
   <v>       0.00390625 </v>
   <v>       0.00390625 </v>
   <v>       0.00390625 </v>
   <v>       0.00390625 </v>
   <v>       0.00390625 </v>
   <v>       0.00390625 </v>
   <v>       0.00390625 </v>
   <v>       0.00390625 </v>
   <v>       0.00390625 </v>
   <v>       0.00390625 </v>
   <v>       0.00390625 </v>
   <v>       0.00390625 </v>
   <v>       0.00390625 </v>
   <v>       0.00390625 </v>
   <v>       0.00390625 </v>
   <v>       0.00390625 </v>
   <v>       0.00390625 </v>
   <v>       0.00390625 </v>
   <v>       0.00390625 </v>
   <v>       0.00390625 </v>
   <v>       0.00390625 </v>
   <v>       0.00390625 </v>
   <v>       0.00390625 </v>
   <v>       0.00390625 </v>
   <v>       0.00390625 </v>
   <v>       0.00390625 </v>
   <v>       0.00390625 </v>
   <v>       0.00390625 </v>
   <v>       0.00390625 </v>
   <v>       0.00390625 </v>
   <v>       0.00390625 </v>
   <v>       0.00390625 </v>
   <v>       0.00390625 </v>
   <v>       0.00390625 </v>
   <v>       0.00390625 </v>
   <v>       0.00390625 </v>
   <v>       0.00390625 </v>
   <v>       0.00390625 </v>
   <v>       0.00390625 </v>
   <v>       0.00390625 </v>
   <v>       0.00390625 </v>
   <v>       0.00390625 </v>
   <v>       0.00390625 </v>
   <v>       0.00390625 </v>
   <v>       0.00390625 </v>
   <v>       0.00390625 </v>
   <v>       0.00390625 </v>
   <v>       0.00390625 </v>
   <v>       0.00390625 </v>
   <v>       0.00390625 </v>
   <v>       0.00390625 </v>
   <v>       0.00390625 </v>
   <v>       0.00390625 </v>
   <v>       0.00390625 </v>
   <v>       0.00390625 </v>
   <v>       0.00390625 </v>
   <v>       0.00390625 </v>
   <v>       0.00390625 </v>
   <v>       0.00390625 </v>
   <v>       0.00390625 </v>
   <v>       0.00390625 </v>
  </varray>
 </kpoints>
 <parameters>
  <separator name="general" >
   <i type="string" name="SYSTEM">unknown system</i>
   <i type="logical" name="LCOMPAT"> F  </i>
  </separator>
  <separator name="electronic" >
   <i type="string" name="PREC">normal</i>
   <i name="ENMAX">    280.00000000</i>
   <i name="ENAUG">    358.96600000</i>
   <i name="EDIFF">      0.00010000</i>
   <i type="int" name="IALGO">    38</i>
   <i type="int" name="IWAVPR">    10</i>
   <i type="int" name="NBANDS">    12</i>
   <i type="int" name="NBANDSLOW">    -1</i>
   <i type="int" name="NBANDSHIGH">    -1</i>
   <i name="NELECT">     10.00000000</i>
   <i type="int" name="TURBO">     0</i>
   <i type="int" name="IRESTART">     0</i>
   <i type="int" name="NREBOOT">     0</i>
   <i type="int" name="NMIN">     0</i>
   <i name="EREF">      0.00000000</i>
   <separator name="electronic smearing" >
    <i type="int" name="ISMEAR">     0</i>
    <i name="SIGMA">      0.05000000</i>
    <i name="KSPACING">      0.50000000</i>
    <i type="logical" name="KGAMMA"> T  </i>
    <i type="logical" name="KBLOWUP"> T  </i>
   </separator>
   <separator name="electronic projectors" >
    <i type="logical" name="LREAL"> F  </i>
    <v name="ROPT">      0.00000000</v>
    <i type="int" name="LMAXPAW">  -100</i>
    <i type="int" name="LMAXMIX">     2</i>
    <i type="logical" name="NLSPLINE"> F  </i>
   </separator>
   <separator name="electronic startup" >
    <i type="int" name="ISTART">     0</i>
    <i type="int" name="ICHARG">     2</i>
    <i type="int" name="INIWAV">     1</i>
   </separator>
   <separator name="electronic spin" >
    <i type="int" name="ISPIN">     1</i>
    <i type="logical" name="LNONCOLLINEAR"> F  </i>
    <v name="MAGMOM">      1.00000000</v>
    <i name="NUPDOWN">     -1.00000000</i>
    <i type="logical" name="LSORBIT"> F  </i>
    <v name="SAXIS">      0.00000000      0.00000000      1.00000000</v>
    <i type="logical" name="LSPIRAL"> F  </i>
    <v name="QSPIRAL">      0.00000000      0.00000000      0.00000000</v>
    <i type="logical" name="LZEROZ"> F  </i>
   </separator>
   <separator name="electronic exchange-correlation" >
    <i type="logical" name="LASPH"> F  </i>
    <i type="logical" name="LMETAGGA"> F  </i>
   </separator>
   <separator name="electronic convergence" >
    <i type="int" name="NELM">    60</i>
    <i type="int" name="NELMDL">    -5</i>
    <i type="int" name="NELMIN">     4</i>
    <i name="ENINI">    280.00000000</i>
    <separator name="electronic convergence detail" >
     <i type="logical" name="LDIAG"> T  </i>
     <i type="logical" name="LSUBROT"> F  </i>
     <i name="WEIMIN">      0.00000000</i>
     <i name="EBREAK">      0.00000208</i>
     <i name="DEPER">      0.30000000</i>
     <i type="int" name="NRMM">     4</i>
     <i name="TIME">      0.40000000</i>
    </separator>
   </separator>
   <separator name="electronic mixer" >
    <i name="AMIX">      0.40000000</i>
    <i name="BMIX">      1.00000000</i>
    <i name="AMIN">      0.10000000</i>
    <i name="AMIX_MAG">      1.60000000</i>
    <i name="BMIX_MAG">      1.00000000</i>
    <separator name="electronic mixer details" >
     <i type="int" name="IMIX">     4</i>
     <i type="logical" name="MIXFIRST"> F  </i>
     <i type="int" name="MAXMIX">   -45</i>
     <i name="WC">    100.00000000</i>
     <i type="int" name="INIMIX">     1</i>
     <i type="int" name="MIXPRE">     1</i>
     <i type="int" name="MREMOVE">     5</i>
    </separator>
   </separator>
   <separator name="electronic dipolcorrection" >
    <i type="logical" name="LDIPOL"> F  </i>
    <i type="logical" name="LMONO"> F  </i>
    <i type="int" name="IDIPOL">     0</i>
    <i name="EPSILON">      1.00000000</i>
    <v name="DIPOL">   -100.00000000   -100.00000000   -100.00000000</v>
    <i name="EFIELD">      0.00000000</i>
   </separator>
  </separator>
  <separator name="grids" >
   <i type="int" name="NGX">    12</i>
   <i type="int" name="NGY">    12</i>
   <i type="int" name="NGZ">    12</i>
   <i type="int" name="NGXF">    24</i>
   <i type="int" name="NGYF">    24</i>
   <i type="int" name="NGZF">    24</i>
   <i type="logical" name="ADDGRID"> F  </i>
  </separator>
  <separator name="ionic" >
   <i type="int" name="NSW">     0</i>
   <i type="int" name="IBRION">    -1</i>
   <i type="int" name="MDALGO">     0</i>
   <i type="int" name="ISIF">     0</i>
   <i name="PSTRESS">      0.00000000</i>
   <i name="EDIFFG">     -0.03000000</i>
   <i type="int" name="NFREE">     1</i>
   <i name="POTIM">      0.50000000</i>
   <i name="SMASS">     -3.00000000</i>
   <i name="SCALEE">      1.00000000</i>
  </separator>
  <separator name="ionic md" >
   <i name="TEBEG">      0.00010000</i>
   <i name="TEEND">      0.00010000</i>
   <i type="int" name="NBLOCK">     1</i>
   <i type="int" name="KBLOCK">     1</i>
   <i type="int" name="NPACO">   256</i>
   <i name="APACO">     16.00000000</i>
  </separator>
  <separator name="symmetry" >
   <i type="int" name="ISYM">     0</i>
   <i name="SYMPREC">      0.00000100</i>
  </separator>
  <separator name="dos" >
   <i type="int" name="LORBIT">    11</i>
   <v name="RWIGS">     -1.00000000</v>
   <i type="int" name="NEDOS">   301</i>
   <i name="EMIN">     10.00000000</i>
   <i name="EMAX">    -10.00000000</i>
   <i name="EFERMI">      0.00000000</i>
  </separator>
  <separator name="writing" >
   <i type="int" name="NWRITE">     2</i>
   <i type="logical" name="LWAVE"> F  </i>
   <i type="logical" name="LDOWNSAMPLE"> F  </i>
   <i type="logical" name="LCHARG"> T  </i>
   <i type="logical" name="LPARD"> F  </i>
   <i type="logical" name="LVTOT"> F  </i>
   <i type="logical" name="LVHAR"> F  </i>
   <i type="logical" name="LELF"> F  </i>
   <i type="logical" name="LOPTICS"> F  </i>
   <v name="STM">      0.00000000      0.00000000      0.00000000      0.00000000      0.00000000      0.00000000      0.00000000</v>
  </separator>
  <separator name="performance" >
   <i type="int" name="NPAR">     4</i>
   <i type="int" name="NSIM">     4</i>
   <i type="int" name="NBLK">    -1</i>
   <i type="logical" name="LPLANE"> T  </i>
   <i type="logical" name="LSCALAPACK"> T  </i>
   <i type="logical" name="LSCAAWARE"> F  </i>
   <i type="logical" name="LSCALU"> F  </i>
   <i type="logical" name="LASYNC"> F  </i>
   <i type="logical" name="LORBITALREAL"> F  </i>
  </separator>
  <separator name="miscellaneous" >
   <i type="int" name="IDIOT">     3</i>
   <i type="int" name="PHON_NSTRUCT">    -1</i>
   <i type="logical" name="LMUSIC"> F  </i>
   <v name="POMASS">    195.08000000</v>
   <v name="DARWINR">      0.00000000</v>
   <v name="DARWINV">      1.00000000</v>
   <i type="logical" name="LCORR"> T  </i>
  </separator>
  <i type="logical" name="GGA_COMPAT"> T  </i>
  <i type="logical" name="LBERRY"> F  </i>
  <i type="int" name="ICORELEVEL">     0</i>
  <i type="logical" name="LDAU"> F  </i>
  <i type="int" name="I_CONSTRAINED_M">     0</i>
  <separator name="electronic exchange-correlation" >
   <i type="string" name="GGA">RP</i>
   <i type="int" name="VOSKOWN">     0</i>
   <i type="logical" name="LHFCALC"> F  </i>
   <i type="string" name="PRECFOCK"></i>
   <i type="logical" name="LSYMGRAD"> F  </i>
   <i type="logical" name="LHFONE"> F  </i>
   <i type="logical" name="LRHFCALC"> F  </i>
   <i type="logical" name="LTHOMAS"> F  </i>
   <i type="logical" name="LMODELHF"> F  </i>
   <i type="logical" name="LFOCKACE"> F  </i>
   <i name="ENCUT4O">     -1.00000000</i>
   <i type="int" name="EXXOEP">     0</i>
   <i type="int" name="FOURORBIT">     0</i>
   <i name="AEXX">      0.00000000</i>
   <i name="HFALPHA">      0.00000000</i>
   <i name="MCALPHA">      0.00000000</i>
   <i name="ALDAX">      1.00000000</i>
   <i name="AGGAX">      1.00000000</i>
   <i name="ALDAC">      1.00000000</i>
   <i name="AGGAC">      1.00000000</i>
   <i type="int" name="NKREDX">     1</i>
   <i type="int" name="NKREDY">     1</i>
   <i type="int" name="NKREDZ">     1</i>
   <i type="logical" name="SHIFTRED"> F  </i>
   <i type="logical" name="ODDONLY"> F  </i>
   <i type="logical" name="EVENONLY"> F  </i>
   <i type="int" name="LMAXFOCK">     0</i>
   <i type="int" name="NMAXFOCKAE">     0</i>
   <i type="logical" name="LFOCKAEDFT"> F  </i>
   <i name="HFSCREEN">      0.00000000</i>
   <i name="HFSCREENC">      0.00000000</i>
   <i type="int" name="NBANDSGWLOW">     0</i>
  </separator>
  <separator name="vdW DFT" >
   <i type="logical" name="LUSE_VDW"> F  </i>
   <i name="Zab_VDW">     -0.84910000</i>
   <i name="PARAM1">      0.12340000</i>
   <i name="PARAM2">      1.00000000</i>
   <i name="PARAM3">      0.00000000</i>
  </separator>
  <separator name="model GW" >
   <i type="int" name="MODEL_GW">     0</i>
   <i name="MODEL_EPS0">      9.05828100</i>
   <i name="MODEL_ALPHA">      1.00000000</i>
  </separator>
  <separator name="linear response parameters" >
   <i type="logical" name="LEPSILON"> F  </i>
   <i type="logical" name="LRPA"> F  </i>
   <i type="logical" name="LNABLA"> F  </i>
   <i type="logical" name="LVEL"> F  </i>
   <i type="int" name="KINTER">     0</i>
   <i name="CSHIFT">      0.10000000</i>
   <i name="OMEGAMAX">     -1.00000000</i>
   <i name="DEG_THRESHOLD">      0.00200000</i>
   <i name="RTIME">     -0.10000000</i>
   <i name="WPLASMAI">      0.00000000</i>
   <v name="DFIELD">      0.00000000      0.00000000      0.00000000</v>
   <v name="WPLASMA">      0.00000000      0.00000000      0.00000000      0.00000000      0.00000000      0.00000000      0.00000000      0.00000000      0.00000000</v>
  </separator>
  <separator name="orbital magnetization" >
   <i type="logical" name="NUCIND"> F  </i>
   <v name="MAGPOS">      0.00000000      0.00000000      0.00000000</v>
   <i type="logical" name="LNICSALL"> T  </i>
   <i type="logical" name="ORBITALMAG"> F  </i>
   <i type="logical" name="LMAGBLOCH"> F  </i>
   <i type="logical" name="LCHIMAG"> F  </i>
   <i type="logical" name="LGAUGE"> T  </i>
   <i type="int" name="MAGATOM">     0</i>
   <v name="MAGDIPOL">      0.00000000      0.00000000      0.00000000</v>
   <v name="AVECCONST">      0.00000000      0.00000000      0.00000000</v>
  </separator>
  <separator name="response functions" >
   <i type="logical" name="LFINITE_TEMPERATURE"> F  </i>
   <i type="logical" name="LADDER"> F  </i>
   <i type="logical" name="LRPAFORCE"> F  </i>
   <i type="logical" name="LFXC"> F  </i>
   <i type="logical" name="LHARTREE"> T  </i>
   <i type="int" name="IBSE">     0</i>
   <v type="int" name="KPOINT">    -1     0     0     0</v>
   <i type="logical" name="LTCTC"> F  </i>
   <i type="logical" name="LTCTE"> F  </i>
   <i type="logical" name="LTETE"> F  </i>
   <i type="logical" name="LTRIPLET"> F  </i>
   <i type="logical" name="LFXCEPS"> F  </i>
   <i type="logical" name="LFXHEG"> F  </i>
   <i type="int" name="NATURALO">     2</i>
   <i type="logical" name="LHOLEGF"> F  </i>
   <i type="logical" name="L2ORDER"> F  </i>
   <i type="logical" name="LDMP1"> F  </i>
   <i type="logical" name="LMP2LT"> F  </i>
   <i type="logical" name="LSMP2LT"> F  </i>
   <i type="logical" name="LGWLF"> F  </i>
   <i name="ENCUTGW">     -2.00000000</i>
   <i name="ENCUTGWSOFT">     -2.00000000</i>
   <i name="ENCUTLF">     -1.00000000</i>
   <i type="logical" name="LESF_SPLINES"> F  </i>
   <i type="int" name="LMAXMP2">    -1</i>
   <i name="SCISSOR">      0.00000000</i>
   <i type="int" name="NOMEGA">     0</i>
   <i type="int" name="NOMEGAR">     0</i>
   <i type="int" name="NBANDSGW">    -1</i>
   <i type="int" name="NBANDSO">    -1</i>
   <i type="int" name="NBANDSV">    -1</i>
   <i type="int" name="NELM">    60</i>
   <i type="int" name="NELMHF">     1</i>
   <i type="int" name="DIM">     3</i>
   <i type="int" name="IESPILON">     4</i>
   <i type="int" name="ANTIRES">     0</i>
   <i name="OMEGAMAX">    -30.00000000</i>
   <i name="OMEGAMIN">    -30.00000000</i>
   <i name="OMEGATL">   -200.00000000</i>
   <i type="int" name="OMEGAGRID">     0</i>
   <i name="CSHIFT">     -0.10000000</i>
   <i type="logical" name="LSELFENERGY"> F  </i>
   <i type="logical" name="LSPECTRAL"> F  </i>
   <i type="logical" name="LSPECTRALGW"> F  </i>
   <i type="logical" name="LSINGLES"> F  </i>
   <i type="logical" name="LFERMIGW"> F  </i>
   <i type="logical" name="ODDONLYGW"> F  </i>
   <i type="logical" name="EVENONLYGW"> F  </i>
   <i type="int" name="NKREDLFX">     1</i>
   <i type="int" name="NKREDLFY">     1</i>
   <i type="int" name="NKREDLFZ">     1</i>
   <i type="int" name="MAXMEM">  2800</i>
   <i type="int" name="TELESCOPE">     0</i>
   <i type="int" name="NTAUPAR">    -1</i>
   <i type="int" name="NOMEGAPAR">    -1</i>
   <i name="DAMP_NEWTON">      0.80000001</i>
   <i name="LAMBDA">      1.00000000</i>
  </separator>
  <separator name="External order field" >
   <i name="OFIELD_KAPPA">      0.00000000</i>
   <v name="OFIELD_K">      0.00000000      0.00000000      0.00000000</v>
   <i name="OFIELD_Q6_NEAR">      0.00000000</i>
   <i name="OFIELD_Q6_FAR">      0.00000000</i>
   <i name="OFIELD_A">      0.00000000</i>
  </separator>
 </parameters>
 <atominfo>
  <atoms>       1 </atoms>
  <types>       1 </types>
  <array name="atoms" >
   <dimension dim="1">ion</dimension>
   <field type="string">element</field>
   <field type="int">atomtype</field>
   <set>
    <rc><c>Pt</c><c>   1</c></rc>
   </set>
  </array>
  <array name="atomtypes" >
   <dimension dim="1">type</dimension>
   <field type="int">atomspertype</field>
   <field type="string">element</field>
   <field>mass</field>
   <field>valence</field>
   <field type="string">pseudopotential</field>
   <set>
    <rc><c>   1</c><c>Pt</c><c>    195.08000000</c><c>     10.00000000</c><c>  PAW_PBE Pt 04Feb2005                  </c></rc>
   </set>
  </array>
 </atominfo>
 <structure name="initialpos" >
  <crystal>
   <varray name="basis" >
    <v>       2.40252100       0.00000000       1.38709600 </v>
    <v>       0.80084000       2.26511800       1.38709600 </v>
    <v>       0.00000000       0.00000000       2.77419200 </v>
   </varray>
   <i name="volume">     15.09713501 </i>
   <varray name="rec_basis" >
    <v>       0.41622945      -0.14715931       0.00000000 </v>
    <v>       0.00000000       0.44147810       0.00000000 </v>
    <v>      -0.20811473      -0.14715940       0.36046532 </v>
   </varray>
  </crystal>
  <varray name="positions" >
   <v>       0.00000000       0.00000000       0.00000000 </v>
  </varray>
 </structure>
 <calculation>
  <scstep>
   <time name="dav">    1.14    1.14</time>
   <time name="total">    1.15    1.15</time>
   <energy>
    <i name="alphaZ">     62.96444125 </i>
    <i name="ewald">   -841.39677442 </i>
    <i name="hartreedc">    -71.62362880 </i>
    <i name="XCdc">      3.54297605 </i>
    <i name="pawpsdc">    696.70595042 </i>
    <i name="pawaedc">   -667.45827301 </i>
    <i name="eentropy">     -0.00106642 </i>
    <i name="bandstr">    108.84811969 </i>
    <i name="atom">    728.27443754 </i>
    <i name="e_fr_energy">     19.85618231 </i>
    <i name="e_wo_entrp">     19.85724873 </i>
    <i name="e_0_energy">     19.85671552 </i>
   </energy>
  </scstep>
  <scstep>
   <time name="dav">    1.17    1.17</time>
   <time name="total">    1.17    1.18</time>
   <energy>
    <i name="e_fr_energy">     -5.51448807 </i>
    <i name="e_wo_entrp">     -5.51246132 </i>
    <i name="e_0_energy">     -5.51347469 </i>
   </energy>
  </scstep>
  <scstep>
   <time name="dav">    1.19    1.19</time>
   <time name="total">    1.19    1.19</time>
   <energy>
    <i name="e_fr_energy">     -5.75974217 </i>
    <i name="e_wo_entrp">     -5.75767348 </i>
    <i name="e_0_energy">     -5.75870782 </i>
   </energy>
  </scstep>
  <scstep>
   <time name="dav">    1.17    1.17</time>
   <time name="total">    1.17    1.18</time>
   <energy>
    <i name="e_fr_energy">     -5.76070656 </i>
    <i name="e_wo_entrp">     -5.75863820 </i>
    <i name="e_0_energy">     -5.75967238 </i>
   </energy>
  </scstep>
  <scstep>
   <time name="dav">    1.16    1.16</time>
   <time name="total">    1.18    1.18</time>
   <energy>
    <i name="e_fr_energy">     -5.76071368 </i>
    <i name="e_wo_entrp">     -5.75864532 </i>
    <i name="e_0_energy">     -5.75967950 </i>
   </energy>
  </scstep>
  <scstep>
   <time name="dav">    1.07    1.08</time>
   <time name="total">    1.10    1.10</time>
   <energy>
    <i name="e_fr_energy">     -5.45873009 </i>
    <i name="e_wo_entrp">     -5.45637979 </i>
    <i name="e_0_energy">     -5.45755494 </i>
   </energy>
  </scstep>
  <scstep>
   <time name="dav">    1.10    1.10</time>
   <time name="total">    1.13    1.13</time>
   <energy>
    <i name="e_fr_energy">     -5.41928519 </i>
    <i name="e_wo_entrp">     -5.41640817 </i>
    <i name="e_0_energy">     -5.41784668 </i>
   </energy>
  </scstep>
  <scstep>
   <time name="dav">    1.08    1.08</time>
   <time name="total">    1.10    1.10</time>
   <energy>
    <i name="e_fr_energy">     -5.41636888 </i>
    <i name="e_wo_entrp">     -5.41359688 </i>
    <i name="e_0_energy">     -5.41498288 </i>
   </energy>
  </scstep>
  <scstep>
   <time name="dav">    1.10    1.10</time>
   <time name="total">    1.13    1.13</time>
   <energy>
    <i name="e_fr_energy">     -5.41615628 </i>
    <i name="e_wo_entrp">     -5.41336655 </i>
    <i name="e_0_energy">     -5.41476141 </i>
   </energy>
  </scstep>
  <scstep>
   <time name="dav">    0.76    0.76</time>
   <time name="total">    0.77    0.77</time>
   <energy>
    <i name="alphaZ">     62.96444125 </i>
    <i name="ewald">   -841.39677442 </i>
    <i name="hartreedc">    -61.32836257 </i>
    <i name="XCdc">      3.22560759 </i>
    <i name="pawpsdc">    938.84160724 </i>
    <i name="pawaedc">   -912.86957707 </i>
    <i name="eentropy">     -0.00279013 </i>
    <i name="bandstr">     76.87525206 </i>
    <i name="atom">    728.27443754 </i>
    <i name="e_fr_energy">     -5.41615851 </i>
    <i name="e_wo_entrp">     -5.41336837 </i>
    <i name="e_0_energy">     -5.41476344 </i>
   </energy>
  </scstep>
  <structure>
   <crystal>
    <varray name="basis" >
     <v>       2.40252100       0.00000000       1.38709600 </v>
     <v>       0.80084000       2.26511800       1.38709600 </v>
     <v>       0.00000000       0.00000000       2.77419200 </v>
    </varray>
    <i name="volume">     15.09713501 </i>
    <varray name="rec_basis" >
     <v>       0.41622945      -0.14715931       0.00000000 </v>
     <v>       0.00000000       0.44147810       0.00000000 </v>
     <v>      -0.20811473      -0.14715940       0.36046532 </v>
    </varray>
   </crystal>
   <varray name="positions" >
    <v>       0.00000000       0.00000000       0.00000000 </v>
   </varray>
  </structure>
  <varray name="forces" >
   <v>       0.00000205       0.00000442       0.00000225 </v>
  </varray>
  <energy>
   <i name="e_fr_energy">     -5.41615851 </i>
   <i name="e_wo_entrp">     -5.41336837 </i>
   <i name="e_0_energy">     -5.41476344 </i>
  </energy>
  <time name="totalsc">   11.17   11.21</time>
  <eigenvalues>
   <array>
    <dimension dim="1">band</dimension>
    <dimension dim="2">kpoint</dimension>
    <dimension dim="3">spin</dimension>
    <field>eigene</field>
    <field>occ</field>
    <set>
     <set comment="spin 1">
      <set comment="kpoint 1">
       <r>    1.1472    1.0000 </r>
       <r>    7.5246    1.0000 </r>
       <r>    7.5246    1.0000 </r>
       <r>    7.5246    1.0000 </r>
       <r>    9.6712    1.0000 </r>
       <r>    9.6712    1.0000 </r>
       <r>   25.9479    0.0000 </r>
       <r>   30.9274    0.0000 </r>
       <r>   30.9274    0.0000 </r>
       <r>   30.9274    0.0000 </r>
       <r>   36.2734    0.0000 </r>
       <r>   43.4328    0.0000 </r>
      </set>
      <set comment="kpoint 2">
       <r>    1.7572    1.0000 </r>
       <r>    7.2839    1.0000 </r>
       <r>    7.7428    1.0000 </r>
       <r>    7.7428    1.0000 </r>
       <r>    9.5709    1.0000 </r>
       <r>    9.5709    1.0000 </r>
       <r>   26.8378    0.0000 </r>
       <r>   28.4713    0.0000 </r>
       <r>   31.8680    0.0000 </r>
       <r>   31.8680    0.0000 </r>
       <r>   37.5830    0.0000 </r>
       <r>   40.4421    0.0000 </r>
      </set>
      <set comment="kpoint 3">
       <r>    1.7572    1.0000 </r>
       <r>    7.2839    1.0000 </r>
       <r>    7.7428    1.0000 </r>
       <r>    7.7428    1.0000 </r>
       <r>    9.5709    1.0000 </r>
       <r>    9.5709    1.0000 </r>
       <r>   26.8378    0.0000 </r>
       <r>   28.4713    0.0000 </r>
       <r>   31.8680    0.0000 </r>
       <r>   31.8680    0.0000 </r>
       <r>   37.5830    0.0000 </r>
       <r>   40.4419    0.0000 </r>
      </set>
      <set comment="kpoint 4">
       <r>    1.7572    1.0000 </r>
       <r>    7.2839    1.0000 </r>
       <r>    7.7428    1.0000 </r>
       <r>    7.7428    1.0000 </r>
       <r>    9.5709    1.0000 </r>
       <r>    9.5709    1.0000 </r>
       <r>   26.8378    0.0000 </r>
       <r>   28.4713    0.0000 </r>
       <r>   31.8680    0.0000 </r>
       <r>   31.8680    0.0000 </r>
       <r>   37.5830    0.0000 </r>
       <r>   40.4418    0.0000 </r>
      </set>
      <set comment="kpoint 5">
       <r>    1.7572    1.0000 </r>
       <r>    7.2839    1.0000 </r>
       <r>    7.7428    1.0000 </r>
       <r>    7.7428    1.0000 </r>
       <r>    9.5709    1.0000 </r>
       <r>    9.5709    1.0000 </r>
       <r>   26.8378    0.0000 </r>
       <r>   28.4714    0.0000 </r>
       <r>   31.8680    0.0000 </r>
       <r>   31.8680    0.0000 </r>
       <r>   37.5830    0.0000 </r>
       <r>   40.4418    0.0000 </r>
      </set>
      <set comment="kpoint 6">
       <r>    3.1874    1.0000 </r>
       <r>    7.1843    1.0000 </r>
       <r>    7.8973    1.0000 </r>
       <r>    7.8973    1.0000 </r>
       <r>    9.8468    1.0000 </r>
       <r>    9.8468    1.0000 </r>
       <r>   24.6332    0.0000 </r>
       <r>   27.6848    0.0000 </r>
       <r>   33.9779    0.0000 </r>
       <r>   33.9779    0.0000 </r>
       <r>   34.8446    0.0000 </r>
       <r>   36.2726    0.0000 </r>
      </set>
      <set comment="kpoint 7">
       <r>    3.1874    1.0000 </r>
       <r>    7.1843    1.0000 </r>
       <r>    7.8973    1.0000 </r>
       <r>    7.8973    1.0000 </r>
       <r>    9.8468    1.0000 </r>
       <r>    9.8468    1.0000 </r>
       <r>   24.6332    0.0000 </r>
       <r>   27.6848    0.0000 </r>
       <r>   33.9779    0.0000 </r>
       <r>   33.9779    0.0000 </r>
       <r>   34.8446    0.0000 </r>
       <r>   36.2725    0.0000 </r>
      </set>
      <set comment="kpoint 8">
       <r>    3.1874    1.0000 </r>
       <r>    7.1843    1.0000 </r>
       <r>    7.8973    1.0000 </r>
       <r>    7.8973    1.0000 </r>
       <r>    9.8468    1.0000 </r>
       <r>    9.8468    1.0000 </r>
       <r>   24.6332    0.0000 </r>
       <r>   27.6848    0.0000 </r>
       <r>   33.9779    0.0000 </r>
       <r>   33.9779    0.0000 </r>
       <r>   34.8446    0.0000 </r>
       <r>   36.2725    0.0000 </r>
      </set>
      <set comment="kpoint 9">
       <r>    3.1875    1.0000 </r>
       <r>    7.1843    1.0000 </r>
       <r>    7.8973    1.0000 </r>
       <r>    7.8973    1.0000 </r>
       <r>    9.8468    1.0000 </r>
       <r>    9.8468    1.0000 </r>
       <r>   24.6332    0.0000 </r>
       <r>   27.6848    0.0000 </r>
       <r>   33.9779    0.0000 </r>
       <r>   33.9779    0.0000 </r>
       <r>   34.8446    0.0000 </r>
       <r>   36.2725    0.0000 </r>
      </set>
      <set comment="kpoint 10">
       <r>    3.9714    1.0000 </r>
       <r>    7.6204    1.0000 </r>
       <r>    7.6204    1.0000 </r>
       <r>    8.8527    1.0000 </r>
       <r>   10.7993    1.0000 </r>
       <r>   10.7993    1.0000 </r>
       <r>   20.1104    0.0000 </r>
       <r>   26.2204    0.0000 </r>
       <r>   31.7303    0.0000 </r>
       <r>   31.7305    0.0000 </r>
       <r>   37.7355    0.0000 </r>
       <r>   37.9861    0.0000 </r>
      </set>
      <set comment="kpoint 11">
       <r>    3.9714    1.0000 </r>
       <r>    7.6204    1.0000 </r>
       <r>    7.6204    1.0000 </r>
       <r>    8.8527    1.0000 </r>
       <r>   10.7993    1.0000 </r>
       <r>   10.7993    1.0000 </r>
       <r>   20.1104    0.0000 </r>
       <r>   26.2204    0.0000 </r>
       <r>   31.7303    0.0000 </r>
       <r>   31.7305    0.0000 </r>
       <r>   37.7354    0.0000 </r>
       <r>   37.9861    0.0000 </r>
      </set>
      <set comment="kpoint 12">
       <r>    3.9714    1.0000 </r>
       <r>    7.6204    1.0000 </r>
       <r>    7.6204    1.0000 </r>
       <r>    8.8527    1.0000 </r>
       <r>   10.7993    1.0000 </r>
       <r>   10.7993    1.0000 </r>
       <r>   20.1104    0.0000 </r>
       <r>   26.2204    0.0000 </r>
       <r>   31.7303    0.0000 </r>
       <r>   31.7305    0.0000 </r>
       <r>   37.7365    0.0000 </r>
       <r>   37.9861    0.0000 </r>
      </set>
      <set comment="kpoint 13">
       <r>    3.9714    1.0000 </r>
       <r>    7.6204    1.0000 </r>
       <r>    7.6204    1.0000 </r>
       <r>    8.8527    1.0000 </r>
       <r>   10.7993    1.0000 </r>
       <r>   10.7993    1.0000 </r>
       <r>   20.1105    0.0000 </r>
       <r>   26.2204    0.0000 </r>
       <r>   31.7303    0.0000 </r>
       <r>   31.7303    0.0000 </r>
       <r>   37.7352    0.0000 </r>
       <r>   37.9860    0.0000 </r>
      </set>
      <set comment="kpoint 14">
       <r>    4.0137    1.0000 </r>
       <r>    7.4637    1.0000 </r>
       <r>    7.4637    1.0000 </r>
       <r>   10.8767    1.0000 </r>
       <r>   11.3307    0.0930 </r>
       <r>   11.3308    0.0929 </r>
       <r>   17.1576    0.0000 </r>
       <r>   25.5266    0.0000 </r>
       <r>   30.3093    0.0000 </r>
       <r>   30.3095    0.0000 </r>
       <r>   39.7201    0.0000 </r>
       <r>   39.7201    0.0000 </r>
      </set>
      <set comment="kpoint 15">
       <r>    4.0137    1.0000 </r>
       <r>    7.4637    1.0000 </r>
       <r>    7.4637    1.0000 </r>
       <r>   10.8767    1.0000 </r>
       <r>   11.3307    0.0930 </r>
       <r>   11.3308    0.0929 </r>
       <r>   17.1576    0.0000 </r>
       <r>   25.5266    0.0000 </r>
       <r>   30.3093    0.0000 </r>
       <r>   30.3095    0.0000 </r>
       <r>   39.7201    0.0000 </r>
       <r>   39.7201    0.0000 </r>
      </set>
      <set comment="kpoint 16">
       <r>    4.0137    1.0000 </r>
       <r>    7.4637    1.0000 </r>
       <r>    7.4637    1.0000 </r>
       <r>   10.8767    1.0000 </r>
       <r>   11.3307    0.0930 </r>
       <r>   11.3308    0.0929 </r>
       <r>   17.1576    0.0000 </r>
       <r>   25.5266    0.0000 </r>
       <r>   30.3093    0.0000 </r>
       <r>   30.3095    0.0000 </r>
       <r>   39.7201    0.0000 </r>
       <r>   39.7201    0.0000 </r>
      </set>
      <set comment="kpoint 17">
       <r>    4.0137    1.0000 </r>
       <r>    7.4637    1.0000 </r>
       <r>    7.4637    1.0000 </r>
       <r>   10.8766    1.0000 </r>
       <r>   11.3308    0.0928 </r>
       <r>   11.3308    0.0928 </r>
       <r>   17.1577    0.0000 </r>
       <r>   25.5266    0.0000 </r>
       <r>   30.3092    0.0000 </r>
       <r>   30.3092    0.0000 </r>
       <r>   39.7200    0.0000 </r>
       <r>   39.7200    0.0000 </r>
      </set>
      <set comment="kpoint 18">
       <r>    1.9651    1.0000 </r>
       <r>    7.0120    1.0000 </r>
       <r>    7.9533    1.0000 </r>
       <r>    7.9533    1.0000 </r>
       <r>    9.1083    1.0000 </r>
       <r>    9.8859    1.0000 </r>
       <r>   27.2112    0.0000 </r>
       <r>   29.4742    0.0000 </r>
       <r>   30.9066    0.0000 </r>
       <r>   30.9066    0.0000 </r>
       <r>   39.0848    0.0000 </r>
       <r>   39.0849    0.0000 </r>
      </set>
      <set comment="kpoint 19">
       <r>    1.9651    1.0000 </r>
       <r>    7.0120    1.0000 </r>
       <r>    7.9533    1.0000 </r>
       <r>    7.9533    1.0000 </r>
       <r>    9.1083    1.0000 </r>
       <r>    9.8859    1.0000 </r>
       <r>   27.2112    0.0000 </r>
       <r>   29.4742    0.0000 </r>
       <r>   30.9066    0.0000 </r>
       <r>   30.9066    0.0000 </r>
       <r>   39.0848    0.0000 </r>
       <r>   39.0848    0.0000 </r>
      </set>
      <set comment="kpoint 20">
       <r>    1.9651    1.0000 </r>
       <r>    7.0120    1.0000 </r>
       <r>    7.9533    1.0000 </r>
       <r>    7.9533    1.0000 </r>
       <r>    9.1083    1.0000 </r>
       <r>    9.8859    1.0000 </r>
       <r>   27.2112    0.0000 </r>
       <r>   29.4742    0.0000 </r>
       <r>   30.9066    0.0000 </r>
       <r>   30.9066    0.0000 </r>
       <r>   39.0848    0.0000 </r>
       <r>   39.0850    0.0000 </r>
      </set>
      <set comment="kpoint 21">
       <r>    3.1891    1.0000 </r>
       <r>    6.6079    1.0000 </r>
       <r>    8.0239    1.0000 </r>
       <r>    8.3129    1.0000 </r>
       <r>    9.2348    1.0000 </r>
       <r>   10.2108    1.0000 </r>
       <r>   26.4539    0.0000 </r>
       <r>   28.4877    0.0000 </r>
       <r>   30.8128    0.0000 </r>
       <r>   31.9001    0.0000 </r>
       <r>   35.6741    0.0000 </r>
       <r>   37.2137    0.0000 </r>
      </set>
      <set comment="kpoint 22">
       <r>    3.1891    1.0000 </r>
       <r>    6.6079    1.0000 </r>
       <r>    8.0239    1.0000 </r>
       <r>    8.3129    1.0000 </r>
       <r>    9.2348    1.0000 </r>
       <r>   10.2108    1.0000 </r>
       <r>   26.4539    0.0000 </r>
       <r>   28.4877    0.0000 </r>
       <r>   30.8128    0.0000 </r>
       <r>   31.9001    0.0000 </r>
       <r>   35.6741    0.0000 </r>
       <r>   37.2137    0.0000 </r>
      </set>
      <set comment="kpoint 23">
       <r>    3.1891    1.0000 </r>
       <r>    6.6079    1.0000 </r>
       <r>    8.0239    1.0000 </r>
       <r>    8.3129    1.0000 </r>
       <r>    9.2348    1.0000 </r>
       <r>   10.2108    1.0000 </r>
       <r>   26.4539    0.0000 </r>
       <r>   28.4877    0.0000 </r>
       <r>   30.8128    0.0000 </r>
       <r>   31.9001    0.0000 </r>
       <r>   35.6741    0.0000 </r>
       <r>   37.2137    0.0000 </r>
      </set>
      <set comment="kpoint 24">
       <r>    3.1891    1.0000 </r>
       <r>    6.6079    1.0000 </r>
       <r>    8.0239    1.0000 </r>
       <r>    8.3129    1.0000 </r>
       <r>    9.2348    1.0000 </r>
       <r>   10.2108    1.0000 </r>
       <r>   26.4539    0.0000 </r>
       <r>   28.4877    0.0000 </r>
       <r>   30.8128    0.0000 </r>
       <r>   31.9001    0.0000 </r>
       <r>   35.6742    0.0000 </r>
       <r>   37.2137    0.0000 </r>
      </set>
      <set comment="kpoint 25">
       <r>    3.1891    1.0000 </r>
       <r>    6.6079    1.0000 </r>
       <r>    8.0239    1.0000 </r>
       <r>    8.3129    1.0000 </r>
       <r>    9.2348    1.0000 </r>
       <r>   10.2108    1.0000 </r>
       <r>   26.4539    0.0000 </r>
       <r>   28.4877    0.0000 </r>
       <r>   30.8127    0.0000 </r>
       <r>   31.9001    0.0000 </r>
       <r>   35.6741    0.0000 </r>
       <r>   37.2136    0.0000 </r>
      </set>
      <set comment="kpoint 26">
       <r>    3.1891    1.0000 </r>
       <r>    6.6079    1.0000 </r>
       <r>    8.0239    1.0000 </r>
       <r>    8.3129    1.0000 </r>
       <r>    9.2348    1.0000 </r>
       <r>   10.2108    1.0000 </r>
       <r>   26.4539    0.0000 </r>
       <r>   28.4877    0.0000 </r>
       <r>   30.8128    0.0000 </r>
       <r>   31.9001    0.0000 </r>
       <r>   35.6741    0.0000 </r>
       <r>   37.2137    0.0000 </r>
      </set>
      <set comment="kpoint 27">
       <r>    3.1891    1.0000 </r>
       <r>    6.6079    1.0000 </r>
       <r>    8.0239    1.0000 </r>
       <r>    8.3129    1.0000 </r>
       <r>    9.2348    1.0000 </r>
       <r>   10.2108    1.0000 </r>
       <r>   26.4539    0.0000 </r>
       <r>   28.4877    0.0000 </r>
       <r>   30.8128    0.0000 </r>
       <r>   31.9001    0.0000 </r>
       <r>   35.6742    0.0000 </r>
       <r>   37.2137    0.0000 </r>
      </set>
      <set comment="kpoint 28">
       <r>    3.1891    1.0000 </r>
       <r>    6.6079    1.0000 </r>
       <r>    8.0239    1.0000 </r>
       <r>    8.3129    1.0000 </r>
       <r>    9.2348    1.0000 </r>
       <r>   10.2108    1.0000 </r>
       <r>   26.4539    0.0000 </r>
       <r>   28.4877    0.0000 </r>
       <r>   30.8127    0.0000 </r>
       <r>   31.9001    0.0000 </r>
       <r>   35.6741    0.0000 </r>
       <r>   37.2136    0.0000 </r>
      </set>
      <set comment="kpoint 29">
       <r>    3.1891    1.0000 </r>
       <r>    6.6079    1.0000 </r>
       <r>    8.0239    1.0000 </r>
       <r>    8.3129    1.0000 </r>
       <r>    9.2348    1.0000 </r>
       <r>   10.2108    1.0000 </r>
       <r>   26.4539    0.0000 </r>
       <r>   28.4877    0.0000 </r>
       <r>   30.8128    0.0000 </r>
       <r>   31.9001    0.0000 </r>
       <r>   35.6741    0.0000 </r>
       <r>   37.2137    0.0000 </r>
      </set>
      <set comment="kpoint 30">
       <r>    3.1891    1.0000 </r>
       <r>    6.6079    1.0000 </r>
       <r>    8.0239    1.0000 </r>
       <r>    8.3129    1.0000 </r>
       <r>    9.2348    1.0000 </r>
       <r>   10.2108    1.0000 </r>
       <r>   26.4539    0.0000 </r>
       <r>   28.4877    0.0000 </r>
       <r>   30.8128    0.0000 </r>
       <r>   31.9001    0.0000 </r>
       <r>   35.6742    0.0000 </r>
       <r>   37.2137    0.0000 </r>
      </set>
      <set comment="kpoint 31">
       <r>    3.1891    1.0000 </r>
       <r>    6.6079    1.0000 </r>
       <r>    8.0239    1.0000 </r>
       <r>    8.3129    1.0000 </r>
       <r>    9.2348    1.0000 </r>
       <r>   10.2108    1.0000 </r>
       <r>   26.4539    0.0000 </r>
       <r>   28.4877    0.0000 </r>
       <r>   30.8128    0.0000 </r>
       <r>   31.9001    0.0000 </r>
       <r>   35.6741    0.0000 </r>
       <r>   37.2136    0.0000 </r>
      </set>
      <set comment="kpoint 32">
       <r>    3.1891    1.0000 </r>
       <r>    6.6079    1.0000 </r>
       <r>    8.0239    1.0000 </r>
       <r>    8.3129    1.0000 </r>
       <r>    9.2348    1.0000 </r>
       <r>   10.2108    1.0000 </r>
       <r>   26.4539    0.0000 </r>
       <r>   28.4877    0.0000 </r>
       <r>   30.8128    0.0000 </r>
       <r>   31.9001    0.0000 </r>
       <r>   35.6741    0.0000 </r>
       <r>   37.2137    0.0000 </r>
      </set>
      <set comment="kpoint 33">
       <r>    4.3308    1.0000 </r>
       <r>    7.1544    1.0000 </r>
       <r>    7.4561    1.0000 </r>
       <r>    8.1703    1.0000 </r>
       <r>   10.8890    1.0000 </r>
       <r>   10.9948    1.0000 </r>
       <r>   21.8188    0.0000 </r>
       <r>   27.3614    0.0000 </r>
       <r>   29.8916    0.0000 </r>
       <r>   31.6035    0.0000 </r>
       <r>   37.3111    0.0000 </r>
       <r>   37.4838    0.0000 </r>
      </set>
      <set comment="kpoint 34">
       <r>    4.3308    1.0000 </r>
       <r>    7.1544    1.0000 </r>
       <r>    7.4561    1.0000 </r>
       <r>    8.1703    1.0000 </r>
       <r>   10.8890    1.0000 </r>
       <r>   10.9948    1.0000 </r>
       <r>   21.8188    0.0000 </r>
       <r>   27.3614    0.0000 </r>
       <r>   29.8916    0.0000 </r>
       <r>   31.6035    0.0000 </r>
       <r>   37.3111    0.0000 </r>
       <r>   37.4838    0.0000 </r>
      </set>
      <set comment="kpoint 35">
       <r>    4.3308    1.0000 </r>
       <r>    7.1544    1.0000 </r>
       <r>    7.4561    1.0000 </r>
       <r>    8.1703    1.0000 </r>
       <r>   10.8890    1.0000 </r>
       <r>   10.9948    1.0000 </r>
       <r>   21.8188    0.0000 </r>
       <r>   27.3614    0.0000 </r>
       <r>   29.8916    0.0000 </r>
       <r>   31.6035    0.0000 </r>
       <r>   37.3111    0.0000 </r>
       <r>   37.4838    0.0000 </r>
      </set>
      <set comment="kpoint 36">
       <r>    4.3308    1.0000 </r>
       <r>    7.1544    1.0000 </r>
       <r>    7.4561    1.0000 </r>
       <r>    8.1703    1.0000 </r>
       <r>   10.8890    1.0000 </r>
       <r>   10.9948    1.0000 </r>
       <r>   21.8188    0.0000 </r>
       <r>   27.3614    0.0000 </r>
       <r>   29.8917    0.0000 </r>
       <r>   31.6035    0.0000 </r>
       <r>   37.3111    0.0000 </r>
       <r>   37.4838    0.0000 </r>
      </set>
      <set comment="kpoint 37">
       <r>    4.3308    1.0000 </r>
       <r>    7.1544    1.0000 </r>
       <r>    7.4561    1.0000 </r>
       <r>    8.1703    1.0000 </r>
       <r>   10.8890    1.0000 </r>
       <r>   10.9948    1.0000 </r>
       <r>   21.8189    0.0000 </r>
       <r>   27.3614    0.0000 </r>
       <r>   29.8915    0.0000 </r>
       <r>   31.6034    0.0000 </r>
       <r>   37.3110    0.0000 </r>
       <r>   37.4838    0.0000 </r>
      </set>
      <set comment="kpoint 38">
       <r>    4.3308    1.0000 </r>
       <r>    7.1544    1.0000 </r>
       <r>    7.4561    1.0000 </r>
       <r>    8.1703    1.0000 </r>
       <r>   10.8890    1.0000 </r>
       <r>   10.9948    1.0000 </r>
       <r>   21.8188    0.0000 </r>
       <r>   27.3614    0.0000 </r>
       <r>   29.8916    0.0000 </r>
       <r>   31.6035    0.0000 </r>
       <r>   37.3111    0.0000 </r>
       <r>   37.4838    0.0000 </r>
      </set>
      <set comment="kpoint 39">
       <r>    4.3308    1.0000 </r>
       <r>    7.1544    1.0000 </r>
       <r>    7.4561    1.0000 </r>
       <r>    8.1703    1.0000 </r>
       <r>   10.8890    1.0000 </r>
       <r>   10.9948    1.0000 </r>
       <r>   21.8188    0.0000 </r>
       <r>   27.3614    0.0000 </r>
       <r>   29.8917    0.0000 </r>
       <r>   31.6035    0.0000 </r>
       <r>   37.3111    0.0000 </r>
       <r>   37.4838    0.0000 </r>
      </set>
      <set comment="kpoint 40">
       <r>    4.3308    1.0000 </r>
       <r>    7.1544    1.0000 </r>
       <r>    7.4561    1.0000 </r>
       <r>    8.1703    1.0000 </r>
       <r>   10.8890    1.0000 </r>
       <r>   10.9948    1.0000 </r>
       <r>   21.8189    0.0000 </r>
       <r>   27.3614    0.0000 </r>
       <r>   29.8915    0.0000 </r>
       <r>   31.6034    0.0000 </r>
       <r>   37.3110    0.0000 </r>
       <r>   37.4838    0.0000 </r>
      </set>
      <set comment="kpoint 41">
       <r>    4.3308    1.0000 </r>
       <r>    7.1544    1.0000 </r>
       <r>    7.4561    1.0000 </r>
       <r>    8.1703    1.0000 </r>
       <r>   10.8890    1.0000 </r>
       <r>   10.9948    1.0000 </r>
       <r>   21.8188    0.0000 </r>
       <r>   27.3614    0.0000 </r>
       <r>   29.8916    0.0000 </r>
       <r>   31.6035    0.0000 </r>
       <r>   37.3111    0.0000 </r>
       <r>   37.4838    0.0000 </r>
      </set>
      <set comment="kpoint 42">
       <r>    4.3308    1.0000 </r>
       <r>    7.1544    1.0000 </r>
       <r>    7.4561    1.0000 </r>
       <r>    8.1703    1.0000 </r>
       <r>   10.8890    1.0000 </r>
       <r>   10.9948    1.0000 </r>
       <r>   21.8188    0.0000 </r>
       <r>   27.3614    0.0000 </r>
       <r>   29.8917    0.0000 </r>
       <r>   31.6035    0.0000 </r>
       <r>   37.3111    0.0000 </r>
       <r>   37.4838    0.0000 </r>
      </set>
      <set comment="kpoint 43">
       <r>    4.3308    1.0000 </r>
       <r>    7.1544    1.0000 </r>
       <r>    7.4561    1.0000 </r>
       <r>    8.1703    1.0000 </r>
       <r>   10.8890    1.0000 </r>
       <r>   10.9948    1.0000 </r>
       <r>   21.8189    0.0000 </r>
       <r>   27.3614    0.0000 </r>
       <r>   29.8915    0.0000 </r>
       <r>   31.6034    0.0000 </r>
       <r>   37.3110    0.0000 </r>
       <r>   37.4838    0.0000 </r>
      </set>
      <set comment="kpoint 44">
       <r>    4.3308    1.0000 </r>
       <r>    7.1544    1.0000 </r>
       <r>    7.4561    1.0000 </r>
       <r>    8.1703    1.0000 </r>
       <r>   10.8890    1.0000 </r>
       <r>   10.9948    1.0000 </r>
       <r>   21.8188    0.0000 </r>
       <r>   27.3614    0.0000 </r>
       <r>   29.8916    0.0000 </r>
       <r>   31.6035    0.0000 </r>
       <r>   37.3111    0.0000 </r>
       <r>   37.4838    0.0000 </r>
      </set>
      <set comment="kpoint 45">
       <r>    4.4819    1.0000 </r>
       <r>    7.1004    1.0000 </r>
       <r>    7.9031    1.0000 </r>
       <r>    8.7686    1.0000 </r>
       <r>   11.3660    0.0102 </r>
       <r>   13.2710    0.0000 </r>
       <r>   17.4823    0.0000 </r>
       <r>   26.3261    0.0000 </r>
       <r>   29.3949    0.0000 </r>
       <r>   29.4437    0.0000 </r>
       <r>   38.8398    0.0000 </r>
       <r>   39.8073    0.0000 </r>
      </set>
      <set comment="kpoint 46">
       <r>    4.4819    1.0000 </r>
       <r>    7.1004    1.0000 </r>
       <r>    7.9031    1.0000 </r>
       <r>    8.7686    1.0000 </r>
       <r>   11.3660    0.0102 </r>
       <r>   13.2710    0.0000 </r>
       <r>   17.4824    0.0000 </r>
       <r>   26.3261    0.0000 </r>
       <r>   29.3949    0.0000 </r>
       <r>   29.4437    0.0000 </r>
       <r>   38.8398    0.0000 </r>
       <r>   39.8073    0.0000 </r>
      </set>
      <set comment="kpoint 47">
       <r>    4.4819    1.0000 </r>
       <r>    7.1004    1.0000 </r>
       <r>    7.9031    1.0000 </r>
       <r>    8.7686    1.0000 </r>
       <r>   11.3660    0.0102 </r>
       <r>   13.2710    0.0000 </r>
       <r>   17.4823    0.0000 </r>
       <r>   26.3261    0.0000 </r>
       <r>   29.3949    0.0000 </r>
       <r>   29.4437    0.0000 </r>
       <r>   38.8398    0.0000 </r>
       <r>   39.8073    0.0000 </r>
      </set>
      <set comment="kpoint 48">
       <r>    4.4819    1.0000 </r>
       <r>    7.1004    1.0000 </r>
       <r>    7.9031    1.0000 </r>
       <r>    8.7686    1.0000 </r>
       <r>   11.3660    0.0102 </r>
       <r>   13.2710    0.0000 </r>
       <r>   17.4824    0.0000 </r>
       <r>   26.3261    0.0000 </r>
       <r>   29.3948    0.0000 </r>
       <r>   29.4438    0.0000 </r>
       <r>   38.8398    0.0000 </r>
       <r>   39.8073    0.0000 </r>
      </set>
      <set comment="kpoint 49">
       <r>    4.4819    1.0000 </r>
       <r>    7.1004    1.0000 </r>
       <r>    7.9030    1.0000 </r>
       <r>    8.7686    1.0000 </r>
       <r>   11.3660    0.0102 </r>
       <r>   13.2710    0.0000 </r>
       <r>   17.4824    0.0000 </r>
       <r>   26.3260    0.0000 </r>
       <r>   29.3947    0.0000 </r>
       <r>   29.4436    0.0000 </r>
       <r>   38.8397    0.0000 </r>
       <r>   39.8072    0.0000 </r>
      </set>
      <set comment="kpoint 50">
       <r>    4.4819    1.0000 </r>
       <r>    7.1004    1.0000 </r>
       <r>    7.9031    1.0000 </r>
       <r>    8.7686    1.0000 </r>
       <r>   11.3660    0.0102 </r>
       <r>   13.2710    0.0000 </r>
       <r>   17.4824    0.0000 </r>
       <r>   26.3261    0.0000 </r>
       <r>   29.3949    0.0000 </r>
       <r>   29.4437    0.0000 </r>
       <r>   38.8398    0.0000 </r>
       <r>   39.8073    0.0000 </r>
      </set>
      <set comment="kpoint 51">
       <r>    4.4819    1.0000 </r>
       <r>    7.1004    1.0000 </r>
       <r>    7.9031    1.0000 </r>
       <r>    8.7686    1.0000 </r>
       <r>   11.3660    0.0102 </r>
       <r>   13.2710    0.0000 </r>
       <r>   17.4824    0.0000 </r>
       <r>   26.3261    0.0000 </r>
       <r>   29.3948    0.0000 </r>
       <r>   29.4438    0.0000 </r>
       <r>   38.8398    0.0000 </r>
       <r>   39.8073    0.0000 </r>
      </set>
      <set comment="kpoint 52">
       <r>    4.4819    1.0000 </r>
       <r>    7.1004    1.0000 </r>
       <r>    7.9030    1.0000 </r>
       <r>    8.7686    1.0000 </r>
       <r>   11.3660    0.0102 </r>
       <r>   13.2710    0.0000 </r>
       <r>   17.4824    0.0000 </r>
       <r>   26.3260    0.0000 </r>
       <r>   29.3947    0.0000 </r>
       <r>   29.4436    0.0000 </r>
       <r>   38.8397    0.0000 </r>
       <r>   39.8072    0.0000 </r>
      </set>
      <set comment="kpoint 53">
       <r>    4.4819    1.0000 </r>
       <r>    7.1004    1.0000 </r>
       <r>    7.9031    1.0000 </r>
       <r>    8.7686    1.0000 </r>
       <r>   11.3660    0.0102 </r>
       <r>   13.2710    0.0000 </r>
       <r>   17.4823    0.0000 </r>
       <r>   26.3261    0.0000 </r>
       <r>   29.3949    0.0000 </r>
       <r>   29.4437    0.0000 </r>
       <r>   38.8398    0.0000 </r>
       <r>   39.8073    0.0000 </r>
      </set>
      <set comment="kpoint 54">
       <r>    4.4819    1.0000 </r>
       <r>    7.1004    1.0000 </r>
       <r>    7.9031    1.0000 </r>
       <r>    8.7686    1.0000 </r>
       <r>   11.3660    0.0102 </r>
       <r>   13.2710    0.0000 </r>
       <r>   17.4824    0.0000 </r>
       <r>   26.3261    0.0000 </r>
       <r>   29.3948    0.0000 </r>
       <r>   29.4438    0.0000 </r>
       <r>   38.8398    0.0000 </r>
       <r>   39.8073    0.0000 </r>
      </set>
      <set comment="kpoint 55">
       <r>    4.4819    1.0000 </r>
       <r>    7.1004    1.0000 </r>
       <r>    7.9030    1.0000 </r>
       <r>    8.7686    1.0000 </r>
       <r>   11.3660    0.0102 </r>
       <r>   13.2710    0.0000 </r>
       <r>   17.4824    0.0000 </r>
       <r>   26.3260    0.0000 </r>
       <r>   29.3947    0.0000 </r>
       <r>   29.4436    0.0000 </r>
       <r>   38.8397    0.0000 </r>
       <r>   39.8072    0.0000 </r>
      </set>
      <set comment="kpoint 56">
       <r>    4.4819    1.0000 </r>
       <r>    7.1004    1.0000 </r>
       <r>    7.9031    1.0000 </r>
       <r>    8.7686    1.0000 </r>
       <r>   11.3660    0.0102 </r>
       <r>   13.2710    0.0000 </r>
       <r>   17.4823    0.0000 </r>
       <r>   26.3261    0.0000 </r>
       <r>   29.3949    0.0000 </r>
       <r>   29.4437    0.0000 </r>
       <r>   38.8398    0.0000 </r>
       <r>   39.8073    0.0000 </r>
      </set>
      <set comment="kpoint 57">
       <r>    4.5151    1.0000 </r>
       <r>    7.2169    1.0000 </r>
       <r>    7.8942    1.0000 </r>
       <r>    8.5310    1.0000 </r>
       <r>   10.6532    1.0000 </r>
       <r>   12.8325    0.0000 </r>
       <r>   18.8302    0.0000 </r>
       <r>   26.4579    0.0000 </r>
       <r>   28.5385    0.0000 </r>
       <r>   31.3758    0.0000 </r>
       <r>   36.9846    0.0000 </r>
       <r>   39.5045    0.0000 </r>
      </set>
      <set comment="kpoint 58">
       <r>    4.5151    1.0000 </r>
       <r>    7.2169    1.0000 </r>
       <r>    7.8942    1.0000 </r>
       <r>    8.5310    1.0000 </r>
       <r>   10.6532    1.0000 </r>
       <r>   12.8325    0.0000 </r>
       <r>   18.8302    0.0000 </r>
       <r>   26.4579    0.0000 </r>
       <r>   28.5385    0.0000 </r>
       <r>   31.3758    0.0000 </r>
       <r>   36.9846    0.0000 </r>
       <r>   39.5045    0.0000 </r>
      </set>
      <set comment="kpoint 59">
       <r>    4.5151    1.0000 </r>
       <r>    7.2169    1.0000 </r>
       <r>    7.8942    1.0000 </r>
       <r>    8.5310    1.0000 </r>
       <r>   10.6532    1.0000 </r>
       <r>   12.8325    0.0000 </r>
       <r>   18.8302    0.0000 </r>
       <r>   26.4579    0.0000 </r>
       <r>   28.5385    0.0000 </r>
       <r>   31.3758    0.0000 </r>
       <r>   36.9846    0.0000 </r>
       <r>   39.5045    0.0000 </r>
      </set>
      <set comment="kpoint 60">
       <r>    4.5151    1.0000 </r>
       <r>    7.2169    1.0000 </r>
       <r>    7.8942    1.0000 </r>
       <r>    8.5310    1.0000 </r>
       <r>   10.6532    1.0000 </r>
       <r>   12.8326    0.0000 </r>
       <r>   18.8302    0.0000 </r>
       <r>   26.4579    0.0000 </r>
       <r>   28.5384    0.0000 </r>
       <r>   31.3759    0.0000 </r>
       <r>   36.9845    0.0000 </r>
       <r>   39.5045    0.0000 </r>
      </set>
      <set comment="kpoint 61">
       <r>    4.5151    1.0000 </r>
       <r>    7.2169    1.0000 </r>
       <r>    7.8942    1.0000 </r>
       <r>    8.5310    1.0000 </r>
       <r>   10.6532    1.0000 </r>
       <r>   12.8326    0.0000 </r>
       <r>   18.8303    0.0000 </r>
       <r>   26.4579    0.0000 </r>
       <r>   28.5384    0.0000 </r>
       <r>   31.3757    0.0000 </r>
       <r>   36.9845    0.0000 </r>
       <r>   39.5044    0.0000 </r>
      </set>
      <set comment="kpoint 62">
       <r>    4.5151    1.0000 </r>
       <r>    7.2169    1.0000 </r>
       <r>    7.8942    1.0000 </r>
       <r>    8.5310    1.0000 </r>
       <r>   10.6532    1.0000 </r>
       <r>   12.8325    0.0000 </r>
       <r>   18.8302    0.0000 </r>
       <r>   26.4579    0.0000 </r>
       <r>   28.5385    0.0000 </r>
       <r>   31.3758    0.0000 </r>
       <r>   36.9846    0.0000 </r>
       <r>   39.5045    0.0000 </r>
      </set>
      <set comment="kpoint 63">
       <r>    4.5151    1.0000 </r>
       <r>    7.2169    1.0000 </r>
       <r>    7.8942    1.0000 </r>
       <r>    8.5310    1.0000 </r>
       <r>   10.6532    1.0000 </r>
       <r>   12.8326    0.0000 </r>
       <r>   18.8302    0.0000 </r>
       <r>   26.4579    0.0000 </r>
       <r>   28.5384    0.0000 </r>
       <r>   31.3759    0.0000 </r>
       <r>   36.9845    0.0000 </r>
       <r>   39.5045    0.0000 </r>
      </set>
      <set comment="kpoint 64">
       <r>    4.5151    1.0000 </r>
       <r>    7.2169    1.0000 </r>
       <r>    7.8942    1.0000 </r>
       <r>    8.5310    1.0000 </r>
       <r>   10.6532    1.0000 </r>
       <r>   12.8326    0.0000 </r>
       <r>   18.8303    0.0000 </r>
       <r>   26.4579    0.0000 </r>
       <r>   28.5384    0.0000 </r>
       <r>   31.3757    0.0000 </r>
       <r>   36.9845    0.0000 </r>
       <r>   39.5044    0.0000 </r>
      </set>
      <set comment="kpoint 65">
       <r>    4.5151    1.0000 </r>
       <r>    7.2169    1.0000 </r>
       <r>    7.8942    1.0000 </r>
       <r>    8.5310    1.0000 </r>
       <r>   10.6532    1.0000 </r>
       <r>   12.8325    0.0000 </r>
       <r>   18.8302    0.0000 </r>
       <r>   26.4579    0.0000 </r>
       <r>   28.5385    0.0000 </r>
       <r>   31.3758    0.0000 </r>
       <r>   36.9846    0.0000 </r>
       <r>   39.5045    0.0000 </r>
      </set>
      <set comment="kpoint 66">
       <r>    4.5151    1.0000 </r>
       <r>    7.2169    1.0000 </r>
       <r>    7.8942    1.0000 </r>
       <r>    8.5310    1.0000 </r>
       <r>   10.6532    1.0000 </r>
       <r>   12.8326    0.0000 </r>
       <r>   18.8302    0.0000 </r>
       <r>   26.4579    0.0000 </r>
       <r>   28.5384    0.0000 </r>
       <r>   31.3759    0.0000 </r>
       <r>   36.9845    0.0000 </r>
       <r>   39.5045    0.0000 </r>
      </set>
      <set comment="kpoint 67">
       <r>    4.5151    1.0000 </r>
       <r>    7.2169    1.0000 </r>
       <r>    7.8942    1.0000 </r>
       <r>    8.5310    1.0000 </r>
       <r>   10.6532    1.0000 </r>
       <r>   12.8326    0.0000 </r>
       <r>   18.8303    0.0000 </r>
       <r>   26.4579    0.0000 </r>
       <r>   28.5384    0.0000 </r>
       <r>   31.3757    0.0000 </r>
       <r>   36.9845    0.0000 </r>
       <r>   39.5044    0.0000 </r>
      </set>
      <set comment="kpoint 68">
       <r>    4.5151    1.0000 </r>
       <r>    7.2169    1.0000 </r>
       <r>    7.8942    1.0000 </r>
       <r>    8.5310    1.0000 </r>
       <r>   10.6532    1.0000 </r>
       <r>   12.8325    0.0000 </r>
       <r>   18.8302    0.0000 </r>
       <r>   26.4579    0.0000 </r>
       <r>   28.5385    0.0000 </r>
       <r>   31.3758    0.0000 </r>
       <r>   36.9846    0.0000 </r>
       <r>   39.5045    0.0000 </r>
      </set>
      <set comment="kpoint 69">
       <r>    4.1259    1.0000 </r>
       <r>    6.9390    1.0000 </r>
       <r>    7.6947    1.0000 </r>
       <r>    8.1907    1.0000 </r>
       <r>    9.4333    1.0000 </r>
       <r>   11.2660    0.6941 </r>
       <r>   23.4433    0.0000 </r>
       <r>   27.5396    0.0000 </r>
       <r>   29.9012    0.0000 </r>
       <r>   33.0426    0.0000 </r>
       <r>   35.2735    0.0000 </r>
       <r>   37.9599    0.0000 </r>
      </set>
      <set comment="kpoint 70">
       <r>    4.1259    1.0000 </r>
       <r>    6.9390    1.0000 </r>
       <r>    7.6947    1.0000 </r>
       <r>    8.1907    1.0000 </r>
       <r>    9.4333    1.0000 </r>
       <r>   11.2660    0.6941 </r>
       <r>   23.4433    0.0000 </r>
       <r>   27.5396    0.0000 </r>
       <r>   29.9012    0.0000 </r>
       <r>   33.0426    0.0000 </r>
       <r>   35.2735    0.0000 </r>
       <r>   37.9599    0.0000 </r>
      </set>
      <set comment="kpoint 71">
       <r>    4.1259    1.0000 </r>
       <r>    6.9390    1.0000 </r>
       <r>    7.6947    1.0000 </r>
       <r>    8.1907    1.0000 </r>
       <r>    9.4333    1.0000 </r>
       <r>   11.2660    0.6941 </r>
       <r>   23.4433    0.0000 </r>
       <r>   27.5396    0.0000 </r>
       <r>   29.9012    0.0000 </r>
       <r>   33.0426    0.0000 </r>
       <r>   35.2735    0.0000 </r>
       <r>   37.9599    0.0000 </r>
      </set>
      <set comment="kpoint 72">
       <r>    4.1259    1.0000 </r>
       <r>    6.9390    1.0000 </r>
       <r>    7.6947    1.0000 </r>
       <r>    8.1907    1.0000 </r>
       <r>    9.4333    1.0000 </r>
[...]
       </set>
       <set comment="band 5">
        <r>  0.0000  0.0038  0.0057  0.0019  0.0027  0.1394  0.0907  0.2789  0.4459 </r>
       </set>
       <set comment="band 6">
        <r>  0.3480  0.0133  0.0164  0.1482  0.0075  0.0199  0.0169  0.1307  0.1851 </r>
       </set>
       <set comment="band 7">
        <r>  0.2678  0.0013  0.0682  0.2530  0.0183  0.1105  0.0087  0.0894  0.0106 </r>
       </set>
       <set comment="band 8">
        <r>  0.0000  0.2024  0.3036  0.1012  0.0928  0.0197  0.1687  0.0394  0.0225 </r>
       </set>
       <set comment="band 9">
        <r>  0.0172  0.2374  0.0632  0.0643  0.2672  0.0354  0.0762  0.0121  0.0008 </r>
       </set>
       <set comment="band 10">
        <r>  0.0002  0.1301  0.1063  0.0030  0.0000  0.0971  0.0026  0.0061  0.0670 </r>
       </set>
       <set comment="band 11">
        <r>  0.0000  0.0067  0.0100  0.0033  0.0570  0.0008  0.2201  0.0016  0.0188 </r>
       </set>
       <set comment="band 12">
        <r>  0.0000  0.0047  0.0069  0.0023  0.0125  0.0099  0.0965  0.0198  0.0493 </r>
       </set>
      </set>
      <set comment="kpoint 250">
       <set comment="band 1">
        <r>  0.0227  0.0164  0.0029  0.0082  0.6910  0.0422  0.0164  0.0211  0.0864 </r>
       </set>
       <set comment="band 2">
        <r>  0.0856  0.0014  0.1605  0.0007  0.0001  0.0794  0.5201  0.0397  0.0000 </r>
       </set>
       <set comment="band 3">
        <r>  0.0000  0.0386  0.0000  0.0773  0.0184  0.2157  0.0000  0.4314  0.1474 </r>
       </set>
       <set comment="band 4">
        <r>  0.0071  0.0081  0.0200  0.0040  0.0692  0.4729  0.1156  0.2364  0.0087 </r>
       </set>
       <set comment="band 5">
        <r>  0.0000  0.0038  0.0000  0.0075  0.0885  0.0536  0.0000  0.1071  0.7083 </r>
       </set>
       <set comment="band 6">
        <r>  0.3480  0.0133  0.1579  0.0067  0.0062  0.0212  0.3212  0.0106  0.0008 </r>
       </set>
       <set comment="band 7">
        <r>  0.2678  0.0013  0.3205  0.0006  0.1263  0.0024  0.0917  0.0012  0.0158 </r>
       </set>
       <set comment="band 8">
        <r>  0.0000  0.2024  0.0000  0.4047  0.0009  0.1116  0.0000  0.2231  0.0076 </r>
       </set>
       <set comment="band 9">
        <r>  0.0172  0.2374  0.0088  0.1187  0.1776  0.1250  0.0043  0.0625  0.0222 </r>
       </set>
       <set comment="band 10">
        <r>  0.0002  0.1301  0.0443  0.0650  0.0724  0.0247  0.0543  0.0124  0.0090 </r>
       </set>
       <set comment="band 11">
        <r>  0.0000  0.0067  0.0000  0.0133  0.0208  0.0371  0.0000  0.0741  0.1664 </r>
       </set>
       <set comment="band 12">
        <r>  0.0000  0.0047  0.0000  0.0092  0.0202  0.0022  0.0000  0.0044  0.1611 </r>
       </set>
      </set>
      <set comment="kpoint 251">
       <set comment="band 1">
        <r>  0.0227  0.0019  0.0247  0.0010  0.0967  0.0422  0.6850  0.0211  0.0121 </r>
       </set>
       <set comment="band 2">
        <r>  0.0855  0.1070  0.0021  0.0535  0.3530  0.0794  0.1231  0.0397  0.0441 </r>
       </set>
       <set comment="band 3">
        <r>  0.0000  0.0386  0.0000  0.0773  0.0719  0.0553  0.0000  0.1105  0.5752 </r>
       </set>
       <set comment="band 4">
        <r>  0.0071  0.0133  0.0121  0.0067  0.1674  0.4729  0.0051  0.2364  0.0209 </r>
       </set>
       <set comment="band 5">
        <r>  0.0000  0.0038  0.0000  0.0075  0.0179  0.2656  0.0000  0.5313  0.1428 </r>
       </set>
       <set comment="band 6">
        <r>  0.3480  0.1053  0.0200  0.0526  0.1792  0.0212  0.1266  0.0106  0.0224 </r>
       </set>
       <set comment="band 7">
        <r>  0.2678  0.2136  0.0019  0.1068  0.1806  0.0024  0.0306  0.0012  0.0226 </r>
       </set>
       <set comment="band 8">
        <r>  0.0000  0.2024  0.0000  0.4047  0.0372  0.0028  0.0000  0.0057  0.2975 </r>
       </set>
       <set comment="band 9">
        <r>  0.0172  0.0059  0.3561  0.0029  0.0246  0.1250  0.1764  0.0625  0.0031 </r>
       </set>
       <set comment="band 10">
        <r>  0.0002  0.0295  0.1951  0.0148  0.0031  0.0247  0.1322  0.0124  0.0004 </r>
       </set>
       <set comment="band 11">
        <r>  0.0000  0.0067  0.0000  0.0133  0.0123  0.0624  0.0000  0.1248  0.0988 </r>
       </set>
       <set comment="band 12">
        <r>  0.0000  0.0047  0.0000  0.0092  0.0007  0.0604  0.0000  0.1209  0.0059 </r>
       </set>
      </set>
      <set comment="kpoint 252">
       <set comment="band 1">
        <r>  0.0571  0.0087  0.0131  0.0044  0.5249  0.0039  0.1969  0.0020  0.0656 </r>
       </set>
       <set comment="band 2">
        <r>  0.0000  0.0108  0.0161  0.0054  0.2025  0.0000  0.6833  0.0000  0.0253 </r>
       </set>
       <set comment="band 3">
        <r>  0.0000  0.0692  0.0000  0.1383  0.0398  0.1193  0.0000  0.2387  0.3182 </r>
       </set>
       <set comment="band 4">
        <r>  0.0135  0.0050  0.0076  0.0025  0.0039  0.6156  0.0015  0.3078  0.0005 </r>
       </set>
       <set comment="band 5">
        <r>  0.0000  0.0000  0.0000  0.0000  0.0549  0.1647  0.0000  0.3294  0.4392 </r>
       </set>
       <set comment="band 6">
        <r>  0.0000  0.2025  0.0000  0.4051  0.0169  0.0508  0.0000  0.1016  0.1355 </r>
       </set>
       <set comment="band 7">
        <r>  0.6443  0.0126  0.0190  0.0063  0.0790  0.0234  0.0296  0.0117  0.0099 </r>
       </set>
       <set comment="band 8">
        <r>  0.0000  0.2246  0.3369  0.1123  0.0221  0.0000  0.0744  0.0000  0.0028 </r>
       </set>
       <set comment="band 9">
        <r>  0.0105  0.1461  0.2192  0.0731  0.2071  0.0406  0.0777  0.0203  0.0259 </r>
       </set>
       <set comment="band 10">
        <r>  0.1518  0.0549  0.0823  0.0274  0.1823  0.0053  0.0684  0.0026  0.0228 </r>
       </set>
       <set comment="band 11">
        <r>  0.0000  0.0003  0.0004  0.0001  0.1987  0.0000  0.6708  0.0000  0.0248 </r>
       </set>
       <set comment="band 12">
        <r>  0.0000  0.0014  0.0000  0.0028  0.0079  0.0236  0.0000  0.0472  0.0630 </r>
       </set>
      </set>
      <set comment="kpoint 253">
       <set comment="band 1">
        <r>  0.0571  0.0087  0.0000  0.0174  0.0948  0.4340  0.0356  0.2170  0.0119 </r>
       </set>
       <set comment="band 2">
        <r>  0.0000  0.0108  0.0161  0.0054  0.0506  0.1519  0.0000  0.3037  0.4049 </r>
       </set>
       <set comment="band 3">
        <r>  0.0000  0.0692  0.1037  0.0346  0.0398  0.1193  0.0000  0.2387  0.3182 </r>
       </set>
       <set comment="band 4">
        <r>  0.0135  0.0050  0.0000  0.0101  0.5051  0.1144  0.1894  0.0572  0.0631 </r>
       </set>
       <set comment="band 5">
        <r>  0.0000  0.0000  0.0000  0.0000  0.2196  0.0000  0.7411  0.0000  0.0274 </r>
       </set>
       <set comment="band 6">
        <r>  0.0000  0.2025  0.3038  0.1013  0.0169  0.0508  0.0000  0.1016  0.1355 </r>
       </set>
       <set comment="band 7">
        <r>  0.6443  0.0126  0.0000  0.0253  0.0746  0.0279  0.0280  0.0139  0.0093 </r>
       </set>
       <set comment="band 8">
        <r>  0.0000  0.2246  0.3369  0.1123  0.0055  0.0165  0.0000  0.0331  0.0441 </r>
       </set>
       <set comment="band 9">
        <r>  0.0105  0.1461  0.0000  0.2922  0.0028  0.2449  0.0011  0.1224  0.0004 </r>
       </set>
       <set comment="band 10">
        <r>  0.1518  0.0549  0.0000  0.1097  0.0764  0.1112  0.0286  0.0556  0.0095 </r>
       </set>
       <set comment="band 11">
        <r>  0.0000  0.0002  0.0004  0.0001  0.0497  0.1491  0.0000  0.2981  0.3975 </r>
       </set>
       <set comment="band 12">
        <r>  0.0000  0.0014  0.0021  0.0007  0.0079  0.0236  0.0000  0.0472  0.0630 </r>
       </set>
      </set>
      <set comment="kpoint 254">
       <set comment="band 1">
        <r>  0.0571  0.0087  0.0131  0.0044  0.1735  0.3554  0.0651  0.1777  0.0217 </r>
       </set>
       <set comment="band 2">
        <r>  0.0000  0.0108  0.0000  0.0215  0.0506  0.1518  0.0000  0.3037  0.4049 </r>
       </set>
       <set comment="band 3">
        <r>  0.0000  0.0692  0.1037  0.0346  0.1591  0.0000  0.5370  0.0000  0.0199 </r>
       </set>
       <set comment="band 4">
        <r>  0.0135  0.0050  0.0076  0.0025  0.4203  0.1992  0.1576  0.0996  0.0525 </r>
       </set>
       <set comment="band 5">
        <r>  0.0000  0.0000  0.0000  0.0000  0.0549  0.1647  0.0000  0.3294  0.4392 </r>
       </set>
       <set comment="band 6">
        <r>  0.0000  0.2025  0.3038  0.1013  0.0678  0.0000  0.2287  0.0000  0.0085 </r>
       </set>
       <set comment="band 7">
        <r>  0.6443  0.0126  0.0190  0.0063  0.0001  0.1024  0.0000  0.0512  0.0000 </r>
       </set>
       <set comment="band 8">
        <r>  0.0000  0.2246  0.0000  0.4492  0.0055  0.0165  0.0000  0.0331  0.0441 </r>
       </set>
       <set comment="band 9">
        <r>  0.0105  0.1461  0.2192  0.0731  0.1616  0.0861  0.0606  0.0431  0.0202 </r>
       </set>
       <set comment="band 10">
        <r>  0.1518  0.0548  0.0823  0.0274  0.0227  0.1649  0.0085  0.0825  0.0028 </r>
       </set>
       <set comment="band 11">
        <r>  0.0000  0.0002  0.0000  0.0005  0.0497  0.1491  0.0000  0.2981  0.3975 </r>
       </set>
       <set comment="band 12">
        <r>  0.0000  0.0014  0.0021  0.0007  0.0315  0.0000  0.1063  0.0000  0.0039 </r>
       </set>
      </set>
      <set comment="kpoint 255">
       <set comment="band 1">
        <r>  0.0571  0.0087  0.0131  0.0044  0.5249  0.0039  0.1969  0.0020  0.0656 </r>
       </set>
       <set comment="band 2">
        <r>  0.0000  0.0108  0.0161  0.0054  0.2025  0.0000  0.6833  0.0000  0.0253 </r>
       </set>
       <set comment="band 3">
        <r>  0.0000  0.0692  0.0000  0.1383  0.0398  0.1193  0.0000  0.2387  0.3182 </r>
       </set>
       <set comment="band 4">
        <r>  0.0135  0.0050  0.0076  0.0025  0.0039  0.6156  0.0015  0.3078  0.0005 </r>
       </set>
       <set comment="band 5">
        <r>  0.0000  0.0000  0.0000  0.0000  0.0549  0.1647  0.0000  0.3294  0.4392 </r>
       </set>
       <set comment="band 6">
        <r>  0.0000  0.2025  0.0000  0.4051  0.0169  0.0508  0.0000  0.1016  0.1355 </r>
       </set>
       <set comment="band 7">
        <r>  0.6443  0.0126  0.0190  0.0063  0.0790  0.0234  0.0296  0.0117  0.0099 </r>
       </set>
       <set comment="band 8">
        <r>  0.0000  0.2246  0.3369  0.1123  0.0221  0.0000  0.0744  0.0000  0.0028 </r>
       </set>
       <set comment="band 9">
        <r>  0.0105  0.1461  0.2192  0.0731  0.2071  0.0406  0.0777  0.0203  0.0259 </r>
       </set>
       <set comment="band 10">
        <r>  0.1518  0.0549  0.0823  0.0274  0.1823  0.0053  0.0684  0.0026  0.0228 </r>
       </set>
       <set comment="band 11">
        <r>  0.0000  0.0002  0.0004  0.0001  0.1987  0.0000  0.6708  0.0000  0.0248 </r>
       </set>
       <set comment="band 12">
        <r>  0.0000  0.0014  0.0000  0.0028  0.0079  0.0236  0.0000  0.0472  0.0630 </r>
       </set>
      </set>
      <set comment="kpoint 256">
       <set comment="band 1">
        <r>  0.0571  0.0087  0.0000  0.0174  0.0948  0.4340  0.0356  0.2170  0.0119 </r>
       </set>
       <set comment="band 2">
        <r>  0.0000  0.0108  0.0161  0.0054  0.0506  0.1518  0.0000  0.3037  0.4049 </r>
       </set>
       <set comment="band 3">
        <r>  0.0000  0.0692  0.1037  0.0346  0.0398  0.1193  0.0000  0.2387  0.3182 </r>
       </set>
       <set comment="band 4">
        <r>  0.0135  0.0050  0.0000  0.0101  0.5051  0.1144  0.1894  0.0572  0.0631 </r>
       </set>
       <set comment="band 5">
        <r>  0.0000  0.0000  0.0000  0.0000  0.2196  0.0000  0.7411  0.0000  0.0274 </r>
       </set>
       <set comment="band 6">
        <r>  0.0000  0.2025  0.3038  0.1013  0.0169  0.0508  0.0000  0.1016  0.1355 </r>
       </set>
       <set comment="band 7">
        <r>  0.6443  0.0126  0.0000  0.0253  0.0746  0.0279  0.0280  0.0139  0.0093 </r>
       </set>
       <set comment="band 8">
        <r>  0.0000  0.2246  0.3369  0.1123  0.0055  0.0165  0.0000  0.0331  0.0441 </r>
       </set>
       <set comment="band 9">
        <r>  0.0105  0.1461  0.0000  0.2923  0.0028  0.2449  0.0011  0.1224  0.0004 </r>
       </set>
       <set comment="band 10">
        <r>  0.1518  0.0549  0.0000  0.1097  0.0764  0.1112  0.0286  0.0556  0.0096 </r>
       </set>
       <set comment="band 11">
        <r>  0.0000  0.0003  0.0004  0.0001  0.0497  0.1491  0.0000  0.2981  0.3975 </r>
       </set>
       <set comment="band 12">
        <r>  0.0000  0.0014  0.0021  0.0007  0.0079  0.0236  0.0000  0.0472  0.0630 </r>
       </set>
      </set>
      <set comment="kpoint 257">
       <set comment="band 1">
        <r>  0.0571  0.0087  0.0131  0.0044  0.1735  0.3553  0.0651  0.1777  0.0217 </r>
       </set>
       <set comment="band 2">
        <r>  0.0000  0.0108  0.0000  0.0215  0.0506  0.1519  0.0000  0.3037  0.4049 </r>
       </set>
       <set comment="band 3">
        <r>  0.0000  0.0692  0.1037  0.0346  0.1591  0.0000  0.5370  0.0000  0.0199 </r>
       </set>
       <set comment="band 4">
        <r>  0.0135  0.0050  0.0076  0.0025  0.4203  0.1992  0.1576  0.0996  0.0525 </r>
       </set>
       <set comment="band 5">
        <r>  0.0000  0.0000  0.0000  0.0000  0.0549  0.1647  0.0000  0.3294  0.4392 </r>
       </set>
       <set comment="band 6">
        <r>  0.0000  0.2025  0.3038  0.1013  0.0678  0.0000  0.2287  0.0000  0.0085 </r>
       </set>
       <set comment="band 7">
        <r>  0.6443  0.0126  0.0190  0.0063  0.0001  0.1024  0.0000  0.0512  0.0000 </r>
       </set>
       <set comment="band 8">
        <r>  0.0000  0.2246  0.0000  0.4492  0.0055  0.0165  0.0000  0.0331  0.0441 </r>
       </set>
       <set comment="band 9">
        <r>  0.0105  0.1461  0.2192  0.0731  0.1616  0.0861  0.0606  0.0430  0.0202 </r>
       </set>
       <set comment="band 10">
        <r>  0.1518  0.0549  0.0823  0.0274  0.0227  0.1649  0.0085  0.0824  0.0028 </r>
       </set>
       <set comment="band 11">
        <r>  0.0000  0.0003  0.0000  0.0005  0.0497  0.1491  0.0000  0.2981  0.3975 </r>
       </set>
       <set comment="band 12">
        <r>  0.0000  0.0014  0.0021  0.0007  0.0315  0.0000  0.1063  0.0000  0.0039 </r>
       </set>
      </set>
      <set comment="kpoint 258">
       <set comment="band 1">
        <r>  0.0000  0.0243  0.0365  0.0122  0.4006  0.1335  0.1502  0.0668  0.0501 </r>
       </set>
       <set comment="band 2">
        <r>  0.0000  0.0758  0.0371  0.0031  0.2185  0.0489  0.3896  0.0978  0.0581 </r>
       </set>
       <set comment="band 3">
        <r>  0.0000  0.0015  0.0209  0.0935  0.0073  0.0866  0.2201  0.1732  0.3258 </r>
       </set>
       <set comment="band 4">
        <r>  0.0682  0.0000  0.0000  0.0000  0.1434  0.4302  0.0538  0.2151  0.0179 </r>
       </set>
       <set comment="band 5">
        <r>  0.0000  0.0000  0.0000  0.0000  0.0549  0.1647  0.0000  0.3294  0.4392 </r>
       </set>
       <set comment="band 6">
        <r>  0.6737  0.0000  0.0000  0.0000  0.0256  0.0769  0.0096  0.0384  0.0032 </r>
       </set>
       <set comment="band 7">
        <r>  0.0000  0.4337  0.1643  0.0526  0.0629  0.0207  0.0950  0.0414  0.0309 </r>
       </set>
       <set comment="band 8">
        <r>  0.0000  0.0000  0.1610  0.4895  0.0068  0.0211  0.0932  0.0422  0.0877 </r>
       </set>
       <set comment="band 9">
        <r>  0.0000  0.1148  0.1723  0.0574  0.2565  0.0855  0.0962  0.0427  0.0321 </r>
       </set>
       <set comment="band 10">
        <r>  0.0000  0.0051  0.0019  0.0006  0.1095  0.0354  0.1667  0.0708  0.0523 </r>
       </set>
       <set comment="band 11">
        <r>  0.0000  0.0000  0.0019  0.0058  0.0113  0.0370  0.1593  0.0741  0.1529 </r>
       </set>
       <set comment="band 12">
        <r>  0.0000  0.1232  0.1848  0.0616  0.0185  0.0062  0.0069  0.0031  0.0023 </r>
       </set>
      </set>
      <set comment="kpoint 259">
       <set comment="band 1">
        <r>  0.0000  0.0243  0.0000  0.0487  0.0000  0.5341  0.0000  0.2671  0.0000 </r>
       </set>
       <set comment="band 2">
        <r>  0.0000  0.0000  0.1160  0.0000  0.0903  0.0001  0.0000  0.0001  0.7224 </r>
       </set>
       <set comment="band 3">
        <r>  0.0000  0.0773  0.0000  0.0387  0.0000  0.2709  0.0000  0.5418  0.0001 </r>
       </set>
       <set comment="band 4">
        <r>  0.0682  0.0000  0.0000  0.0000  0.5736  0.0000  0.2151  0.0000  0.0717 </r>
       </set>
       <set comment="band 5">
        <r>  0.0000  0.0000  0.0000  0.0000  0.2196  0.0000  0.7412  0.0000  0.0275 </r>
       </set>
       <set comment="band 6">
        <r>  0.6737  0.0000  0.0000  0.0000  0.1025  0.0000  0.0385  0.0000  0.0128 </r>
       </set>
       <set comment="band 7">
        <r>  0.0000  0.0000  0.6506  0.0000  0.0279  0.0000  0.0000  0.0000  0.2231 </r>
       </set>
       <set comment="band 8">
        <r>  0.0000  0.4337  0.0000  0.2168  0.0000  0.0837  0.0000  0.1673  0.0000 </r>
       </set>
       <set comment="band 9">
        <r>  0.0000  0.1148  0.0000  0.2297  0.0000  0.3420  0.0000  0.1710  0.0000 </r>
       </set>
       <set comment="band 10">
        <r>  0.0000  0.0000  0.0076  0.0000  0.0483  0.0000  0.0000  0.0000  0.3863 </r>
       </set>
       <set comment="band 11">
        <r>  0.0000  0.0051  0.0000  0.0025  0.0000  0.1449  0.0000  0.2897  0.0000 </r>
       </set>
       <set comment="band 12">
        <r>  0.0000  0.1232  0.0000  0.2465  0.0000  0.0247  0.0000  0.0123  0.0000 </r>
       </set>
      </set>
      <set comment="kpoint 260">
       <set comment="band 1">
        <r>  0.0000  0.0243  0.0365  0.0122  0.4006  0.1335  0.1502  0.0668  0.0501 </r>
       </set>
       <set comment="band 2">
        <r>  0.0000  0.0002  0.0323  0.0835  0.0308  0.0601  0.3393  0.1202  0.2625 </r>
       </set>
       <set comment="band 3">
        <r>  0.0000  0.0771  0.0257  0.0132  0.1950  0.0754  0.2704  0.1508  0.1213 </r>
       </set>
       <set comment="band 4">
        <r>  0.0682  0.0000  0.0000  0.0000  0.1434  0.4302  0.0538  0.2151  0.0179 </r>
       </set>
       <set comment="band 5">
        <r>  0.0000  0.0000  0.0000  0.0000  0.0549  0.1647  0.0000  0.3294  0.4392 </r>
       </set>
       <set comment="band 6">
        <r>  0.6737  0.0000  0.0000  0.0000  0.0256  0.0769  0.0096  0.0384  0.0032 </r>
       </set>
       <set comment="band 7">
        <r>  0.0000  0.0000  0.1644  0.4861  0.0072  0.0207  0.0951  0.0414  0.0866 </r>
       </set>
       <set comment="band 8">
        <r>  0.0000  0.4337  0.1608  0.0560  0.0625  0.0211  0.0931  0.0423  0.0319 </r>
       </set>
       <set comment="band 9">
        <r>  0.0000  0.1148  0.1723  0.0574  0.2565  0.0855  0.0962  0.0427  0.0321 </r>
       </set>
       <set comment="band 10">
        <r>  0.0000  0.0000  0.0020  0.0057  0.0131  0.0352  0.1675  0.0704  0.1484 </r>
       </set>
       <set comment="band 11">
        <r>  0.0000  0.0051  0.0019  0.0007  0.1076  0.0372  0.1585  0.0744  0.0568 </r>
       </set>
       <set comment="band 12">
        <r>  0.0000  0.1232  0.1848  0.0616  0.0185  0.0062  0.0069  0.0031  0.0023 </r>
       </set>
      </set>
     </set>
    </set>
   </array>
  </projected>
 </calculation>
 <structure name="finalpos" >
  <crystal>
   <varray name="basis" >
    <v>       2.40252100       0.00000000       1.38709600 </v>
    <v>       0.80084000       2.26511800       1.38709600 </v>
    <v>       0.00000000       0.00000000       2.77419200 </v>
   </varray>
   <i name="volume">     15.09713501 </i>
   <varray name="rec_basis" >
    <v>       0.41622945      -0.14715931       0.00000000 </v>
    <v>       0.00000000       0.44147810       0.00000000 </v>
    <v>      -0.20811473      -0.14715940       0.36046532 </v>
   </varray>
  </crystal>
  <varray name="positions" >
   <v>       0.00000000       0.00000000       0.00000000 </v>
  </varray>
 </structure>
</modeling>
