 vasp.6.2.0 18Jan21 (build Feb  1 2022 01:28:57) complex                         
 executed on             LinuxPGI date 2022.05.17  23:02:18
 running on   16 total cores
 distrk:  each k-point on   16 cores,    1 groups
 distr:  one band on NCORE=   4 cores,    4 groups


--------------------------------------------------------------------------------------------------------


 INCAR:
   ALGO = 38
   AMIN = 0.01
   AMIX = 0.2
   BMIX = 0.001
   EDIFF = 0.0001
   EDIFFG = 0.001
   ENCUT = 420
   GGA = RP
   IBRION = 2
   ISIF = 0
   ISMEAR = 0
   ISPIN = 1
   ISYM = 0
   LASPH = False
   LORBIT = 11
   LREAL = True
   LVTOT = False
   LWAVE = False
   NCORE = 4
   NELM = 60
   NELMIN = 4
   NSW = 300
   PREC = Normal
   SIGMA = 0.05
   SYMPREC = 1e-05

 POTCAR:    PAW_PBE Pt 04Feb2005                  
 POTCAR:    PAW_PBE C 08Apr2002                   
 POTCAR:    PAW_PBE O 08Apr2002                   
 POTCAR:    PAW_PBE Pt 04Feb2005                  
   SHA256 =  3ed90460adef76debcff1cfb73ee1349b515b1a3db03439735b44de3a8db7dc8 Pt/POTCAR             
   COPYR  = (c) Copyright 04Feb2005 Georg Kresse                                                    
   COPYR  = This file is part of the software VASP. Any use, copying, and all other rights are regul
   COPYR  = If you do not have a valid VASP license, you may not use, copy or distribute this file. 
   VRHFIN =Pt: s1d9                                                                                 
   LEXCH  = PE                                                                                      
   EATOM  =   729.1176 eV,   53.5886 Ry                                                             
                                                                                                    
   TITEL  = PAW_PBE Pt 04Feb2005                                                                    
   LULTRA =        F    use ultrasoft PP ?                                                          
   IUNSCR =        1    unscreen: 0-lin 1-nonlin 2-no                                               
   RPACOR =    2.330    partial core radius                                                         
   POMASS =  195.080; ZVAL   =   10.000    mass and valenz                                          
   RCORE  =    2.600    outmost cutoff radius                                                       
   RWIGS  =    2.750; RWIGS  =    1.455    wigner-seitz radius (au A)                               
   ENMAX  =  230.283; ENMIN  =  172.712 eV                                                          
   ICORE  =        3    local potential                                                             
   LCOR   =        T    correct aug charges                                                         
   LPAW   =        T    paw PP                                                                      
   EAUG   =  358.966                                                                                
   DEXC   =    0.000                                                                                
   RMAX   =    2.658    core radius for proj-oper                                                   
   RAUG   =    1.300    factor for augmentation sphere                                              
   RDEP   =    2.761    radius for radial grids                                                     
   RDEPT  =    2.203    core radius for aug-charge                                                  
                                                                                                    
   Atomic configuration                                                                             
   16 entries                                                                                       
     n  l   j            E        occ.                                                              
     1  0  0.50    -78401.1885   2.0000                                                             
     2  0  0.50    -13770.7750   2.0000                                                             
     2  1  1.50    -11931.0468   6.0000                                                             
     3  0  0.50     -3234.7234   2.0000                                                             
     3  1  1.50     -2699.2216   6.0000                                                             
     3  2  2.50     -2119.5714  10.0000                                                             
     4  0  0.50      -695.1528   2.0000                                                             
     4  1  1.50      -519.6034   6.0000                                                             
     4  2  2.50      -306.6786  10.0000                                                             
     4  3  3.50       -70.1041  14.0000                                                             
     5  0  0.50      -101.7747   2.0000                                                             
     5  1  1.50       -55.9873   6.0000                                                             
     5  2  2.50        -6.1423   9.0000                                                             
     6  0  0.50        -5.6573   1.0000                                                             
     6  1  1.50        -6.8029   0.0000                                                             
     5  3  2.50        -1.3606   0.0000                                                             
   Description                                                                                      
     l       E           TYP  RCUT    TYP  RCUT                                                     
     2     -6.1423404     23  2.500                                                                 
     2     -7.5029230     23  2.500                                                                 
     0     -5.6573207     23  2.500                                                                 
     0      0.7416693     23  2.500                                                                 
     1     -2.7211652     23  2.600                                                                 
     1     20.4087390     23  2.600                                                                 
     3     -1.3605826     23  2.500                                                                 
  local pseudopotential read in
  partial core-charges read in
  partial kinetic energy density read in
  atomic valenz-charges read in
  non local Contribution for L=            2  read in
    real space projection operators read in
  non local Contribution for L=            2  read in
    real space projection operators read in
  non local Contribution for L=            0  read in
    real space projection operators read in
  non local Contribution for L=            0  read in
    real space projection operators read in
  non local Contribution for L=            1  read in
    real space projection operators read in
  non local Contribution for L=            1  read in
    real space projection operators read in
    PAW grid and wavefunctions read in
 
   number of l-projection  operators is LMAX  =            6
   number of lm-projection operators is LMMAX =           18
 
 POTCAR:    PAW_PBE C 08Apr2002                   
   SHA256 =  253f7b50bb8d59471dbedb8285d89021f4a42ed1a2c5d38a03a736e69125dd95 C/POTCAR              
   COPYR  = (c) Copyright 08Apr2002 Georg Kresse                                                    
   COPYR  = This file is part of the software VASP. Any use, copying, and all other rights are regul
   COPYR  = If you do not have a valid VASP license, you may not use, copy or distribute this file. 
   VRHFIN =C: s2p2                                                                                  
   LEXCH  = PE                                                                                      
   EATOM  =   147.1560 eV,   10.8157 Ry                                                             
                                                                                                    
   TITEL  = PAW_PBE C 08Apr2002                                                                     
   LULTRA =        F    use ultrasoft PP ?                                                          
   IUNSCR =        1    unscreen: 0-lin 1-nonlin 2-no                                               
   RPACOR =    1.200    partial core radius                                                         
   POMASS =   12.011; ZVAL   =    4.000    mass and valenz                                          
   RCORE  =    1.500    outmost cutoff radius                                                       
   RWIGS  =    1.630; RWIGS  =    0.863    wigner-seitz radius (au A)                               
   ENMAX  =  400.000; ENMIN  =  300.000 eV                                                          
   ICORE  =        2    local potential                                                             
   LCOR   =        T    correct aug charges                                                         
   LPAW   =        T    paw PP                                                                      
   EAUG   =  644.873                                                                                
   DEXC   =    0.000                                                                                
   RMAX   =    1.529    core radius for proj-oper                                                   
   RAUG   =    1.300    factor for augmentation sphere                                              
   RDEP   =    1.501    radius for radial grids                                                     
   RDEPT  =    1.300    core radius for aug-charge                                                  
                                                                                                    
   Atomic configuration                                                                             
    4 entries                                                                                       
     n  l   j            E        occ.                                                              
     1  0  0.50      -273.3789   2.0000                                                             
     2  0  0.50       -13.7508   2.0000                                                             
     2  1  0.50        -5.2854   2.0000                                                             
     3  2  1.50        -5.4423   0.0000                                                             
   Description                                                                                      
     l       E           TYP  RCUT    TYP  RCUT                                                     
     0    -13.7508458     23  1.200                                                                 
     0     -8.2022199     23  1.200                                                                 
     1     -5.2854383     23  1.500                                                                 
     1     34.0145650     23  1.500                                                                 
     2     -5.4423304      7  1.500                                                                 
  local pseudopotential read in
  partial core-charges read in
  partial kinetic energy density read in
  atomic valenz-charges read in
  non local Contribution for L=            0  read in
    real space projection operators read in
  non local Contribution for L=            0  read in
    real space projection operators read in
  non local Contribution for L=            1  read in
    real space projection operators read in
  non local Contribution for L=            1  read in
    real space projection operators read in
    PAW grid and wavefunctions read in
 
   number of l-projection  operators is LMAX  =            4
   number of lm-projection operators is LMMAX =            8
 
 POTCAR:    PAW_PBE O 08Apr2002                   
   SHA256 =  818f92134a0a090dccd8ba1447fa70422a3b330e708bb4f08108d8ae51209ddf O/POTCAR              
   COPYR  = (c) Copyright 08Apr2002 Georg Kresse                                                    
   COPYR  = This file is part of the software VASP. Any use, copying, and all other rights are regul
   COPYR  = If you do not have a valid VASP license, you may not use, copy or distribute this file. 
   VRHFIN =O: s2p4                                                                                  
   LEXCH  = PE                                                                                      
   EATOM  =   432.3788 eV,   31.7789 Ry                                                             
                                                                                                    
   TITEL  = PAW_PBE O 08Apr2002                                                                     
   LULTRA =        F    use ultrasoft PP ?                                                          
   IUNSCR =        1    unscreen: 0-lin 1-nonlin 2-no                                               
   RPACOR =    1.200    partial core radius                                                         
   POMASS =   16.000; ZVAL   =    6.000    mass and valenz                                          
   RCORE  =    1.520    outmost cutoff radius                                                       
   RWIGS  =    1.550; RWIGS  =    0.820    wigner-seitz radius (au A)                               
   ENMAX  =  400.000; ENMIN  =  300.000 eV                                                          
   ICORE  =        2    local potential                                                             
   LCOR   =        T    correct aug charges                                                         
   LPAW   =        T    paw PP                                                                      
   EAUG   =  605.392                                                                                
   DEXC   =    0.000                                                                                
   RMAX   =    1.553    core radius for proj-oper                                                   
   RAUG   =    1.300    factor for augmentation sphere                                              
   RDEP   =    1.550    radius for radial grids                                                     
   RDEPT  =    1.329    core radius for aug-charge                                                  
                                                                                                    
   Atomic configuration                                                                             
    4 entries                                                                                       
     n  l   j            E        occ.                                                              
     1  0  0.50      -514.6923   2.0000                                                             
     2  0  0.50       -23.9615   2.0000                                                             
     2  1  0.50        -9.0305   4.0000                                                             
     3  2  1.50        -9.5241   0.0000                                                             
   Description                                                                                      
     l       E           TYP  RCUT    TYP  RCUT                                                     
     0    -23.9615318     23  1.200                                                                 
     0     -9.5240782     23  1.200                                                                 
     1     -9.0304911     23  1.520                                                                 
     1      8.1634956     23  1.520                                                                 
     2     -9.5240782      7  1.500                                                                 
  local pseudopotential read in
  partial core-charges read in
  partial kinetic energy density read in
  kinetic energy density of atom read in
  atomic valenz-charges read in
  non local Contribution for L=            0  read in
    real space projection operators read in
  non local Contribution for L=            0  read in
    real space projection operators read in
  non local Contribution for L=            1  read in
    real space projection operators read in
  non local Contribution for L=            1  read in
    real space projection operators read in
    PAW grid and wavefunctions read in
 
   number of l-projection  operators is LMAX  =            4
   number of lm-projection operators is LMMAX =            8
 
 -----------------------------------------------------------------------------
|                                                                             |
|           W    W    AA    RRRRR   N    N  II  N    N   GGGG   !!!           |
|           W    W   A  A   R    R  NN   N  II  NN   N  G    G  !!!           |
|           W    W  A    A  R    R  N N  N  II  N N  N  G       !!!           |
|           W WW W  AAAAAA  RRRRR   N  N N  II  N  N N  G  GGG   !            |
|           WW  WW  A    A  R   R   N   NN  II  N   NN  G    G                |
|           W    W  A    A  R    R  N    N  II  N    N   GGGG   !!!           |
|                                                                             |
|     The real-space projection scheme for the treatment of the non-local     |
|     pseudopotentials has been switched on but on file POTCAR I have not     |
|     found any entries, signalling me that you have never performed a        |
|     real-space optimization of all non-local projectors! BE WARNED that     |
|     a calculation using the real-space projection scheme together with      |
|     non-local projectors which were not real-space optimized (according     |
|     to the plane-wave cutoff used in this calculation) might give more      |
|     or less inaccurate results. I hope you know what you are doing.         |
|                                                                             |
 -----------------------------------------------------------------------------

 -----------------------------------------------------------------------------
|                                                                             |
|               ----> ADVICE to this user running VASP <----                  |
|                                                                             |
|     You enforced a specific xc type in the INCAR file but a different       |
|     type was found in the POTCAR file.                                      |
|     I HOPE YOU KNOW WHAT YOU ARE DOING!                                     |
|                                                                             |
 -----------------------------------------------------------------------------

  PAW_PBE Pt 04Feb2005                  :
 energy of atom  1       EATOM= -729.1176
 kinetic energy error for atom=    0.0052 (will be added to EATOM!!)
  PAW_PBE C 08Apr2002                   :
 energy of atom  2       EATOM= -147.1560
 kinetic energy error for atom=    0.0192 (will be added to EATOM!!)
  PAW_PBE O 08Apr2002                   :
 energy of atom  3       EATOM= -432.3788
 kinetic energy error for atom=    0.0724 (will be added to EATOM!!)
 
 
 POSCAR: Pt16 C1 O1
  positions in direct lattice
  No initial velocities read in
 exchange correlation table for  LEXCH =        9
   RHO(1)=    0.500       N(1)  =     2000
   RHO(2)=  100.500       N(2)  =     4000
 


--------------------------------------------------------------------------------------------------------


 ion  position               nearest neighbor table
   1  0.016  0.141  0.406-   5 2.82   2 2.82   2 2.82   6 2.82   7 2.82   3 2.82   3 2.82   4 2.82
                             4 2.82
   2  0.016  0.641  0.406-   6 2.82   1 2.82   1 2.82   5 2.82   8 2.82   4 2.82   4 2.82   3 2.82
                             3 2.82
   3  0.516  0.141  0.406-   7 2.82   4 2.82   4 2.82   8 2.82   5 2.82   1 2.82   1 2.82   2 2.82
                             2 2.82
   4  0.516  0.641  0.406-   8 2.82   3 2.82   3 2.82   7 2.82   6 2.82   2 2.82   2 2.82   1 2.82
                             1 2.82
   5  0.172  0.297  0.469-   9 2.77  11 2.81   1 2.82   6 2.82   6 2.82   2 2.82   3 2.82   7 2.82
                             7 2.82   8 2.82   8 2.82  10 2.97
   6  0.172  0.797  0.469-  10 2.77  12 2.81   2 2.82   5 2.82   5 2.82   1 2.82   4 2.82   8 2.82
                             8 2.82   7 2.82   7 2.82   9 2.97
   7  0.672  0.297  0.469-  11 2.77   9 2.81   3 2.82   8 2.82   8 2.82   4 2.82   1 2.82   5 2.82
                             5 2.82   6 2.82   6 2.82  12 2.97
   8  0.672  0.797  0.469-  12 2.77  10 2.81   4 2.82   7 2.82   7 2.82   3 2.82   2 2.82   6 2.82
                             6 2.82   5 2.82   5 2.82  11 2.97
   9  0.343  0.409  0.532-   5 2.77   7 2.81  10 2.82  11 2.82  12 2.82  12 2.82  11 2.82  10 2.82
                            14 2.85  16 2.91   6 2.97  13 3.10
  10  0.343  0.909  0.532-   6 2.77   8 2.81  12 2.82  11 2.82   9 2.82   9 2.82  11 2.82  12 2.82
                            13 2.85  15 2.91   5 2.97  14 3.10
  11  0.843  0.409  0.532-   7 2.77   5 2.81  10 2.82  12 2.82   9 2.82   9 2.82  12 2.82  10 2.82
                            16 2.85  14 2.91   8 2.97  15 3.10
  12  0.843  0.909  0.532-   8 2.77   6 2.81  10 2.82  11 2.82   9 2.82   9 2.82  11 2.82  10 2.82
                            15 2.85  13 2.91   7 2.97  16 3.10
  13  0.513  0.011  0.599-  17 2.45  15 2.82  14 2.82  16 2.82  16 2.82  14 2.82  15 2.82  10 2.85
                            12 2.91   9 3.10
  14  0.513  0.511  0.599-  13 2.82  16 2.82  15 2.82  15 2.82  16 2.82  13 2.82   9 2.85  11 2.91
                            10 3.10
  15  0.013  0.010  0.599-  17 2.45  13 2.82  16 2.82  14 2.82  14 2.82  16 2.82  13 2.82  12 2.85
                            10 2.91  11 3.10
  16  0.013  0.511  0.599-  15 2.82  13 2.82  14 2.82  14 2.82  13 2.82  15 2.82  11 2.85   9 2.91
                            12 3.10
  17  0.754  0.001  0.653-  18 1.15  15 2.45  13 2.45
  18  0.749  0.996  0.684-  17 1.15
 

IMPORTANT INFORMATION: All symmetrisations will be switched off!
NOSYMM: (Re-)initialisation of all symmetry stuff for point group C_1.


----------------------------------------------------------------------------------------

                                     Primitive cell                                     

  volume of cell :    1013.3605

  direct lattice vectors                    reciprocal lattice vectors
     5.633072000  0.000000000  0.215543000     0.177523028 -0.102293022  0.000000000
     2.812412000  4.880762000  0.215543000     0.000000000  0.204886040  0.000000000
     0.000000000  0.000000000 36.857938000    -0.001038144 -0.000599958  0.027131198

  length of vectors
     5.637194244  5.637194137 36.857938000     0.204886036  0.204886040  0.027157680

  position of ions in fractional coordinates (direct lattice)
     0.015625000  0.140625000  0.406250000
     0.015625000  0.640625000  0.406250000
     0.515625000  0.140625000  0.406250000
     0.515625000  0.640625000  0.406250000
     0.171875000  0.296875000  0.468750000
     0.171875000  0.796875000  0.468750000
     0.671875000  0.296875000  0.468750000
     0.671875000  0.796875000  0.468750000
     0.342792000  0.409173000  0.532126000
     0.342803000  0.909138000  0.532132000
     0.842766000  0.409261000  0.532140000
     0.842875000  0.909234000  0.532132000
     0.513159000  0.010549000  0.598671000
     0.513126000  0.510509000  0.598684000
     0.013121000  0.010493000  0.598686000
     0.013114000  0.510523000  0.598681000
     0.754088000  0.001468000  0.652994000
     0.748881000  0.996261000  0.684234000

  ion indices of the primitive-cell ions
   primitive index   ion index
                 1           1
                 2           2
                 3           3
                 4           4
                 5           5
                 6           6
                 7           7
                 8           8
                 9           9
                10          10
                11          11
                12          12
                13          13
                14          14
                15          15
                16          16
                17          17
                18          18

----------------------------------------------------------------------------------------

 
 
 KPOINTS: Automatic kpoint scheme                 

Automatic generation of k-mesh.
 Grid dimensions read from file:
 generate k-points for:    2    2    1

 Generating k-lattice:

  Cartesian coordinates                     Fractional coordinates (reciprocal lattice)
     0.088761514 -0.051146511  0.000000000     0.500000000  0.000000000  0.000000000
     0.000000000  0.102443020  0.000000000     0.000000000  0.500000000  0.000000000
    -0.001038144 -0.000599958  0.027131198     0.000000000  0.000000000  1.000000000

  Length of vectors
     0.102443018  0.102443020  0.027157680

  Shift w.r.t. Gamma in fractional coordinates (k-lattice)
     0.000000000  0.000000000  0.000000000

 
 Subroutine IBZKPT returns following result:
 ===========================================
 
 Found      4 irreducible k-points:
 
 Following reciprocal coordinates:
            Coordinates               Weight
  0.000000  0.000000  0.000000      1.000000
  0.500000  0.000000  0.000000      1.000000
  0.000000  0.500000  0.000000      1.000000
  0.500000  0.500000  0.000000      1.000000
 
 Following cartesian coordinates:
            Coordinates               Weight
  0.000000  0.000000  0.000000      1.000000
  0.088762 -0.051147  0.000000      1.000000
  0.000000  0.102443  0.000000      1.000000
  0.088762  0.051297  0.000000      1.000000
 


--------------------------------------------------------------------------------------------------------




 Dimension of arrays:
   k-points           NKPTS =      4   k-points in BZ     NKDIM =      4   number of bands    NBANDS=    104
   number of dos      NEDOS =    301   number of ions     NIONS =     18
   non local maximal  LDIM  =      6   non local SUM 2l+1 LMDIM =     18
   total plane-waves  NPLWV = 150528
   max r-space proj   IRMAX =   1782   max aug-charges    IRDMAX=   9195
   dimension x,y,z NGX =    28 NGY =   28 NGZ =  192
   dimension x,y,z NGXF=    56 NGYF=   56 NGZF=  384
   support grid    NGXF=    56 NGYF=   56 NGZF=  384
   ions per type =              16   1   1
   NGX,Y,Z   is equivalent  to a cutoff of   8.26,  8.26,  8.66 a.u.
   NGXF,Y,Z  is equivalent  to a cutoff of  16.51, 16.51, 17.32 a.u.

 SYSTEM =  unknown system                          
 POSCAR =  Pt16 C1 O1                              

 Startparameter for this run:
   NWRITE =      2    write-flag & timer
   PREC   = normal    normal or accurate (medium, high low for compatibility)
   ISTART =      0    job   : 0-new  1-cont  2-samecut
   ICHARG =      2    charge: 1-file 2-atom 10-const
   ISPIN  =      1    spin polarized calculation?
   LNONCOLLINEAR =      F non collinear calculations
   LSORBIT =      F    spin-orbit coupling
   INIWAV =      1    electr: 0-lowe 1-rand  2-diag
   LASPH  =      F    aspherical Exc in radial PAW
   METAGGA=      F    non-selfconsistent MetaGGA calc.

 Electronic Relaxation 1
   ENCUT  =  420.0 eV  30.87 Ry    5.56 a.u.   9.42  9.42 61.59*2*pi/ulx,y,z
   ENINI  =  420.0     initial cutoff
   ENAUG  =  644.9 eV  augmentation charge cutoff
   NELM   =     60;   NELMIN=  4; NELMDL= -5     # of ELM steps 
   EDIFF  = 0.1E-03   stopping-criterion for ELM
   LREAL  =      T    real-space projection
   NLSPLINE    = F    spline interpolate recip. space projectors
   LCOMPAT=      F    compatible to vasp.4.4
   GGA_COMPAT  = T    GGA compatible to vasp.4.4-vasp.4.6
   LMAXPAW     = -100 max onsite density
   LMAXMIX     =    2 max onsite mixed and CHGCAR
   VOSKOWN=      0    Vosko Wilk Nusair interpolation
   ROPT   =    0.00000   0.00000   0.00000
 Ionic relaxation
   EDIFFG = 0.1E-02   stopping-criterion for IOM
   NSW    =    300    number of steps for IOM
   NBLOCK =      1;   KBLOCK =    300    inner block; outer block 
   IBRION =      2    ionic relax: 0-MD 1-quasi-New 2-CG
   NFREE  =      1    steps in history (QN), initial steepest desc. (CG)
   ISIF   =      0    stress and relaxation
   IWAVPR =     11    prediction:  0-non 1-charg 2-wave 3-comb
   ISYM   =      0    0-nonsym 1-usesym 2-fastsym
   LCORR  =      T    Harris-Foulkes like correction to forces

   POTIM  = 0.5000    time-step for ionic-motion
   TEIN   =    0.0    initial temperature
   TEBEG  =    0.0;   TEEND  =   0.0 temperature during run
   SMASS  =  -3.00    Nose mass-parameter (am)
   estimated Nose-frequenzy (Omega)   =  0.10E-29 period in steps = 0.13E+47 mass=  -0.726E-27a.u.
   SCALEE = 1.0000    scale energy and forces
   NPACO  =    256;   APACO  = 16.0  distance and # of slots for P.C.
   PSTRESS=    0.0 pullay stress

  Mass of Ions in am
   POMASS = 195.08 12.01 16.00
  Ionic Valenz
   ZVAL   =  10.00  4.00  6.00
  Atomic Wigner-Seitz radii
   RWIGS  =  -1.00 -1.00 -1.00
  virtual crystal weights 
   VCA    =   1.00  1.00  1.00
   NELECT =     170.0000    total number of electrons
   NUPDOWN=      -1.0000    fix difference up-down

 DOS related values:
   EMIN   =  10.00;   EMAX   =-10.00  energy-range for DOS
   EFERMI =   0.00
   ISMEAR =     0;   SIGMA  =   0.05  broadening in eV -4-tet -1-fermi 0-gaus

 Electronic relaxation 2 (details)
   IALGO  =     38    algorithm
   LDIAG  =      T    sub-space diagonalisation (order eigenvalues)
   LSUBROT=      F    optimize rotation matrix (better conditioning)
   TURBO    =      0    0=normal 1=particle mesh
   IRESTART =      0    0=no restart 2=restart with 2 vectors
   NREBOOT  =      0    no. of reboots
   NMIN     =      0    reboot dimension
   EREF     =   0.00    reference energy to select bands
   IMIX   =      4    mixing-type and parameters
     AMIX     =   0.20;   BMIX     =  0.00
     AMIX_MAG =   0.80;   BMIX_MAG =  0.00
     AMIN     =   0.01
     WC   =   100.;   INIMIX=   1;  MIXPRE=   1;  MAXMIX= -45

 Intra band minimization:
   WEIMIN = 0.0010     energy-eigenvalue tresh-hold
   EBREAK =  0.24E-06  absolut break condition
   DEPER  =   0.30     relativ break condition  

   TIME   =   0.40     timestep for ELM

  volume/ion in A,a.u.               =      56.30       379.92
  Fermi-wavevector in a.u.,A,eV,Ry     =   0.902893  1.706221 11.091694  0.815217
  Thomas-Fermi vector in A             =   2.026153
 
 Write flags
   LWAVE        =      F    write WAVECAR
   LDOWNSAMPLE  =      F    k-point downsampling of WAVECAR
   LCHARG       =      T    write CHGCAR
   LVTOT        =      F    write LOCPOT, total local potential
   LVHAR        =      F    write LOCPOT, Hartree potential only
   LELF         =      F    write electronic localiz. function (ELF)
   LORBIT       =     11    0 simple, 1 ext, 2 COOP (PROOUT), +10 PAW based schemes


 Dipole corrections
   LMONO  =      F    monopole corrections only (constant potential shift)
   LDIPOL =      F    correct potential (dipole corrections)
   IDIPOL =      0    1-x, 2-y, 3-z, 4-all directions 
   EPSILON=  1.0000000 bulk dielectric constant

 Exchange correlation treatment:
   GGA     =    RP    GGA type
   LEXCH   =     9    internal setting for exchange type
   VOSKOWN=      0    Vosko Wilk Nusair interpolation
   LHFCALC =     F    Hartree Fock is set to
   LHFONE  =     F    Hartree Fock one center treatment
   AEXX    =    0.0000 exact exchange contribution

 Linear response parameters
   LEPSILON=     F    determine dielectric tensor
   LRPA    =     F    only Hartree local field effects (RPA)
   LNABLA  =     F    use nabla operator in PAW spheres
   LVEL    =     F    velocity operator in full k-point grid
   LINTERFAST=   F  fast interpolation
   KINTER  =     0    interpolate to denser k-point grid
   CSHIFT  =0.1000    complex shift for real part using Kramers Kronig
   OMEGAMAX=  -1.0    maximum frequency
   DEG_THRESHOLD= 0.2000000E-02 threshold for treating states as degnerate
   RTIME   =   -0.100 relaxation time in fs
  (WPLASMAI=    0.000 imaginary part of plasma frequency in eV, 0.658/RTIME)
   DFIELD  = 0.0000000 0.0000000 0.0000000 field for delta impulse in time
 
 Orbital magnetization related:
   ORBITALMAG=     F  switch on orbital magnetization
   LCHIMAG   =     F  perturbation theory with respect to B field
   DQ        =  0.001000  dq finite difference perturbation B field
   LLRAUG    =     F  two centre corrections for induced B field



--------------------------------------------------------------------------------------------------------


 conjugate gradient relaxation of ions
   using selective dynamics as specified on POSCAR
 charge density and potential will be updated during run
 non-spin polarized calculation
 Variant of blocked Davidson
 Davidson routine will perform the subspace rotation
 perform sub-space diagonalisation
    after iterative eigenvector-optimisation
 modified Broyden-mixing scheme, WC =      100.0
 initial mixing is a Kerker type mixing with AMIX =  0.2000 and BMIX =      0.0010
 Hartree-type preconditioning will be used
 using additional bands            19
 real space projection scheme for non local part
 use partial core corrections
 calculate Harris-corrections to forces 
   (improved forces if not selfconsistent)
 use gradient corrections 
 use of overlap-Matrix (Vanderbilt PP)
 Gauss-broadening in eV      SIGMA  =   0.05


--------------------------------------------------------------------------------------------------------


  energy-cutoff  :      420.00
  volume of cell :     1013.36
      direct lattice vectors                 reciprocal lattice vectors
     5.633072000  0.000000000  0.215543000     0.177523028 -0.102293022  0.000000000
     2.812412000  4.880762000  0.215543000     0.000000000  0.204886040  0.000000000
     0.000000000  0.000000000 36.857938000    -0.001038144 -0.000599958  0.027131198

  length of vectors
     5.637194244  5.637194137 36.857938000     0.204886036  0.204886040  0.027157680


 
 k-points in units of 2pi/SCALE and weight: Automatic kpoint scheme                 
   0.00000000  0.00000000  0.00000000       0.250
   0.08876151 -0.05114651  0.00000000       0.250
   0.00000000  0.10244302  0.00000000       0.250
   0.08876151  0.05129651  0.00000000       0.250
 
 k-points in reciprocal lattice and weights: Automatic kpoint scheme                 
   0.00000000  0.00000000  0.00000000       0.250
   0.50000000  0.00000000  0.00000000       0.250
   0.00000000  0.50000000  0.00000000       0.250
   0.50000000  0.50000000  0.00000000       0.250
 
 position of ions in fractional coordinates (direct lattice) 
   0.01562500  0.14062500  0.40625000
   0.01562500  0.64062500  0.40625000
   0.51562500  0.14062500  0.40625000
   0.51562500  0.64062500  0.40625000
   0.17187500  0.29687500  0.46875000
   0.17187500  0.79687500  0.46875000
   0.67187500  0.29687500  0.46875000
   0.67187500  0.79687500  0.46875000
   0.34279200  0.40917300  0.53212600
   0.34280300  0.90913800  0.53213200
   0.84276600  0.40926100  0.53214000
   0.84287500  0.90923400  0.53213200
   0.51315900  0.01054900  0.59867100
   0.51312600  0.51050900  0.59868400
   0.01312100  0.01049300  0.59868600
   0.01311400  0.51052300  0.59868100
   0.75408800  0.00146800  0.65299400
   0.74888100  0.99626100  0.68423400
 
 position of ions in cartesian coordinates  (Angst):
   0.48351219  0.68635716 15.00721591
   1.88971819  3.12673816 15.11498741
   3.30004819  0.68635716 15.11498741
   4.70625419  3.12673816 15.22275891
   1.80311906  1.44897622 17.37819422
   3.20932506  3.88935722 17.48596572
   4.61965506  1.44897622 17.48596572
   6.02586106  3.88935722 17.59373722
   3.08173507  1.99707603 19.77514791
   4.48790460  4.43728620 19.88313538
   5.89837210  1.99750554 19.88344878
   7.30511617  4.43775476 19.99094309
   2.92032973  0.05148716 22.17866019
   4.32623734  2.49167293 22.28689511
   0.10342218  0.05121384 22.07142130
   1.50967312  2.49174126 22.17901347
   4.25196062  0.00716496 24.23086717
   7.02039698  4.86251283 25.59560749
 


--------------------------------------------------------------------------------------------------------


 k-point   1 :   0.0000 0.0000 0.0000  plane waves:   19835
 k-point   2 :   0.5000 0.0000 0.0000  plane waves:   19792
 k-point   3 :   0.0000 0.5000 0.0000  plane waves:   19792
 k-point   4 :   0.5000 0.5000 0.0000  plane waves:   19772

 maximum and minimum number of plane-waves per node :      4977     4923

 maximum number of plane-waves:     19835
 maximum index in each direction: 
   IXMAX=    9   IYMAX=    9   IZMAX=   61
   IXMIN=   -9   IYMIN=   -9   IZMIN=  -61


 real space projection operators:
  total allocation   :       3836.23 KBytes
  max/ min on nodes  :        960.03        958.20


 parallel 3D FFT for wavefunctions:
    minimum data exchange during FFTs selected (reduces bandwidth)
 parallel 3D FFT for charge:
    minimum data exchange during FFTs selected (reduces bandwidth)


 total amount of memory used by VASP MPI-rank0    51204. kBytes
=======================================================================

   base      :      30000. kBytes
   nonlr-proj:       1713. kBytes
   fftplans  :       3961. kBytes
   grid      :       7034. kBytes
   one-center:         77. kBytes
   wavefun   :       8419. kBytes
 
     INWAV:  cpu time    0.0001: real time    0.0001
 Broyden mixing: mesh for mixing (old mesh)
   NGX = 19   NGY = 19   NGZ =123
  (NGX  = 56   NGY  = 56   NGZ  =384)
  gives a total of  44403 points

 initial charge density was supplied:
 charge density of overlapping atoms calculated
 number of electron     170.0000000 magnetization 
 keeping initial charge density in first step


--------------------------------------------------------------------------------------------------------


 Maximum index for non-local projection operator           437
 Maximum index for augmentation-charges           759 (set IRDMAX)


--------------------------------------------------------------------------------------------------------


 First call to EWALD:  gamma=   0.176
 Maximum number of real-space cells 5x 5x 1
 Maximum number of reciprocal cells 2x 2x 9

    FEWALD:  cpu time    0.0033: real time    0.0033


--------------------------------------- Iteration      1(   1)  ---------------------------------------


    POTLOK:  cpu time    0.1400: real time    0.1401
    SETDIJ:  cpu time    0.0103: real time    0.0130
     EDDAV:  cpu time    2.4722: real time    2.4755
       DOS:  cpu time    0.0014: real time    0.0014
    --------------------------------------------
      LOOP:  cpu time    2.6239: real time    2.6300

 eigenvalue-minimisations  :   848
 total energy-change (2. order) : 0.1142225E+04  (-0.6185642E+04)
 number of electron     170.0000000 magnetization 
 augmentation part      170.0000000 magnetization 

 Free energy of the ion-electron system (eV)
  ---------------------------------------------------
  alpha Z        PSCENC =       262.47990408
  Ewald energy   TEWEN  =    139516.72258219
  -Hartree energ DENC   =   -151930.37796162
  -exchange      EXHF   =         0.00000000
  -V(xc)+E(xc)   XCENC  =        86.56385296
  PAW double counting   =     11602.90403888   -11137.02028253
  entropy T*S    EENTRO =        -0.02120025
  eigenvalues    EBANDS =       508.38030282
  atomic energy  EATOM  =     12232.59423587
  Solvation  Ediel_sol  =         0.00000000
  ---------------------------------------------------
  free energy    TOTEN  =      1142.22547240 eV

  energy without entropy =     1142.24667264  energy(sigma->0) =     1142.23607252


--------------------------------------------------------------------------------------------------------




--------------------------------------- Iteration      1(   2)  ---------------------------------------


     EDDAV:  cpu time    2.9459: real time    2.9573
       DOS:  cpu time    0.0013: real time    0.0013
    --------------------------------------------
      LOOP:  cpu time    2.9471: real time    2.9586

 eigenvalue-minimisations  :  1096
 total energy-change (2. order) :-0.1140328E+04  (-0.1062138E+04)
 number of electron     170.0000000 magnetization 
 augmentation part      170.0000000 magnetization 

 Free energy of the ion-electron system (eV)
  ---------------------------------------------------
  alpha Z        PSCENC =       262.47990408
  Ewald energy   TEWEN  =    139516.72258219
  -Hartree energ DENC   =   -151930.37796162
  -exchange      EXHF   =         0.00000000
  -V(xc)+E(xc)   XCENC  =        86.56385296
  PAW double counting   =     11602.90403888   -11137.02028253
  entropy T*S    EENTRO =        -0.00281305
  eigenvalues    EBANDS =      -631.96597413
  atomic energy  EATOM  =     12232.59423587
  Solvation  Ediel_sol  =         0.00000000
  ---------------------------------------------------
  free energy    TOTEN  =         1.89758264 eV

  energy without entropy =        1.90039569  energy(sigma->0) =        1.89898917


--------------------------------------------------------------------------------------------------------




--------------------------------------- Iteration      1(   3)  ---------------------------------------


     EDDAV:  cpu time    2.7074: real time    2.7156
       DOS:  cpu time    0.0013: real time    0.0013
    --------------------------------------------
      LOOP:  cpu time    2.7087: real time    2.7169

 eigenvalue-minimisations  :   976
 total energy-change (2. order) :-0.1043696E+03  (-0.9733448E+02)
 number of electron     170.0000000 magnetization 
 augmentation part      170.0000000 magnetization 

 Free energy of the ion-electron system (eV)
  ---------------------------------------------------
  alpha Z        PSCENC =       262.47990408
  Ewald energy   TEWEN  =    139516.72258219
  -Hartree energ DENC   =   -151930.37796162
  -exchange      EXHF   =         0.00000000
  -V(xc)+E(xc)   XCENC  =        86.56385296
  PAW double counting   =     11602.90403888   -11137.02028253
  entropy T*S    EENTRO =        -0.02150328
  eigenvalues    EBANDS =      -736.31692611
  atomic energy  EATOM  =     12232.59423587
  Solvation  Ediel_sol  =         0.00000000
  ---------------------------------------------------
  free energy    TOTEN  =      -102.47205956 eV

  energy without entropy =     -102.45055628  energy(sigma->0) =     -102.46130792


--------------------------------------------------------------------------------------------------------




--------------------------------------- Iteration      1(   4)  ---------------------------------------


     EDDAV:  cpu time    3.0395: real time    3.0428
       DOS:  cpu time    0.0012: real time    0.0012
    --------------------------------------------
      LOOP:  cpu time    3.0407: real time    3.0440

 eigenvalue-minimisations  :  1112
 total energy-change (2. order) :-0.3859509E+01  (-0.3690879E+01)
 number of electron     170.0000000 magnetization 
 augmentation part      170.0000000 magnetization 

 Free energy of the ion-electron system (eV)
  ---------------------------------------------------
  alpha Z        PSCENC =       262.47990408
  Ewald energy   TEWEN  =    139516.72258219
  -Hartree energ DENC   =   -151930.37796162
  -exchange      EXHF   =         0.00000000
  -V(xc)+E(xc)   XCENC  =        86.56385296
  PAW double counting   =     11602.90403888   -11137.02028253
  entropy T*S    EENTRO =        -0.02197721
  eigenvalues    EBANDS =      -740.17596147
  atomic energy  EATOM  =     12232.59423587
  Solvation  Ediel_sol  =         0.00000000
  ---------------------------------------------------
  free energy    TOTEN  =      -106.33156885 eV

  energy without entropy =     -106.30959165  energy(sigma->0) =     -106.32058025


--------------------------------------------------------------------------------------------------------




--------------------------------------- Iteration      1(   5)  ---------------------------------------


     EDDAV:  cpu time    3.0185: real time    3.0274
       DOS:  cpu time    0.0012: real time    0.0012
    CHARGE:  cpu time    0.1687: real time    0.1716
    MIXING:  cpu time    0.0029: real time    0.0029
    --------------------------------------------
      LOOP:  cpu time    3.1913: real time    3.2031

 eigenvalue-minimisations  :  1112
 total energy-change (2. order) :-0.1000194E+00  (-0.9909130E-01)
 number of electron     169.9999985 magnetization 
 augmentation part       47.6175516 magnetization 

 Broyden mixing:
  rms(total) = 0.36601E+01    rms(broyden)= 0.36598E+01
  rms(prec ) = 0.36918E+01
  weight for this iteration     100.00

 Free energy of the ion-electron system (eV)
  ---------------------------------------------------
  alpha Z        PSCENC =       262.47990408
  Ewald energy   TEWEN  =    139516.72258219
  -Hartree energ DENC   =   -151930.37796162
  -exchange      EXHF   =         0.00000000
  -V(xc)+E(xc)   XCENC  =        86.56385296
  PAW double counting   =     11602.90403888   -11137.02028253
  entropy T*S    EENTRO =        -0.02194211
  eigenvalues    EBANDS =      -740.27601599
  atomic energy  EATOM  =     12232.59423587
  Solvation  Ediel_sol  =         0.00000000
  ---------------------------------------------------
  free energy    TOTEN  =      -106.43158827 eV

  energy without entropy =     -106.40964616  energy(sigma->0) =     -106.42061722


--------------------------------------------------------------------------------------------------------




--------------------------------------- Iteration      1(   6)  ---------------------------------------


    POTLOK:  cpu time    0.1283: real time    0.1284
    SETDIJ:  cpu time    0.0095: real time    0.0095
     EDDAV:  cpu time    2.6228: real time    2.6413
       DOS:  cpu time    0.0010: real time    0.0010
    CHARGE:  cpu time    0.1692: real time    0.1695
    MIXING:  cpu time    0.0035: real time    0.0035
    --------------------------------------------
      LOOP:  cpu time    2.9343: real time    2.9532

 eigenvalue-minimisations  :   952
 total energy-change (2. order) :-0.3404994E+01  (-0.1898794E+01)
 number of electron     169.9999980 magnetization 
 augmentation part       49.8010451 magnetization 

 Broyden mixing:
  rms(total) = 0.43182E+01    rms(broyden)= 0.43180E+01
  rms(prec ) = 0.45856E+01
  weight for this iteration     100.00

 eigenvalues of (default mixing * dielectric matrix)
  average eigenvalue GAMMA=   0.1604
  0.1604

 Free energy of the ion-electron system (eV)
  ---------------------------------------------------
  alpha Z        PSCENC =       262.47990408
  Ewald energy   TEWEN  =    139516.72258219
  -Hartree energ DENC   =   -151593.57085965
  -exchange      EXHF   =         0.00000000
  -V(xc)+E(xc)   XCENC  =        84.82485649
  PAW double counting   =     12136.69948532   -11681.67173015
  entropy T*S    EENTRO =        -0.01680769
  eigenvalues    EBANDS =     -1067.89824823
  atomic energy  EATOM  =     12232.59423587
  Solvation  Ediel_sol  =         0.00000000
  ---------------------------------------------------
  free energy    TOTEN  =      -109.83658178 eV

  energy without entropy =     -109.81977409  energy(sigma->0) =     -109.82817794


--------------------------------------------------------------------------------------------------------




--------------------------------------- Iteration      1(   7)  ---------------------------------------


    POTLOK:  cpu time    0.1232: real time    0.1279
    SETDIJ:  cpu time    0.0091: real time    0.0094
     EDDAV:  cpu time    3.0403: real time    3.0616
       DOS:  cpu time    0.0014: real time    0.0014
    CHARGE:  cpu time    0.1613: real time    0.1615
    MIXING:  cpu time    0.0035: real time    0.0035
    --------------------------------------------
      LOOP:  cpu time    3.3388: real time    3.3653

 eigenvalue-minimisations  :  1128
 total energy-change (2. order) :-0.9737475E+00  (-0.4736207E+01)
 number of electron     169.9999980 magnetization 
 augmentation part       49.3068612 magnetization 

 Broyden mixing:
  rms(total) = 0.37223E+01    rms(broyden)= 0.37223E+01
  rms(prec ) = 0.42159E+01
  weight for this iteration     100.00

 eigenvalues of (default mixing * dielectric matrix)
  average eigenvalue GAMMA=   0.3075
  0.4600  0.1551

 Free energy of the ion-electron system (eV)
  ---------------------------------------------------
  alpha Z        PSCENC =       262.47990408
  Ewald energy   TEWEN  =    139516.72258219
  -Hartree energ DENC   =   -151712.08939037
  -exchange      EXHF   =         0.00000000
  -V(xc)+E(xc)   XCENC  =        84.73971630
  PAW double counting   =     12225.22528007   -11771.17369837
  entropy T*S    EENTRO =        -0.00945551
  eigenvalues    EBANDS =      -949.29950357
  atomic energy  EATOM  =     12232.59423587
  Solvation  Ediel_sol  =         0.00000000
  ---------------------------------------------------
  free energy    TOTEN  =      -110.81032930 eV

  energy without entropy =     -110.80087380  energy(sigma->0) =     -110.80560155


--------------------------------------------------------------------------------------------------------




--------------------------------------- Iteration      1(   8)  ---------------------------------------


    POTLOK:  cpu time    0.1243: real time    0.1244
    SETDIJ:  cpu time    0.0097: real time    0.0097
     EDDAV:  cpu time    3.4174: real time    3.4295
       DOS:  cpu time    0.0013: real time    0.0013
    CHARGE:  cpu time    0.1691: real time    0.1720
    MIXING:  cpu time    0.0031: real time    0.0031
    --------------------------------------------
      LOOP:  cpu time    3.7248: real time    3.7399

 eigenvalue-minimisations  :  1312
 total energy-change (2. order) :-0.5913930E+02  (-0.9158837E+01)
 number of electron     169.9999971 magnetization 
 augmentation part       47.0968348 magnetization 

 Broyden mixing:
  rms(total) = 0.66048E+01    rms(broyden)= 0.66048E+01
  rms(prec ) = 0.81487E+01
  weight for this iteration     100.00

 eigenvalues of (default mixing * dielectric matrix)
  average eigenvalue GAMMA=   0.3196
  0.6849  0.2201  0.0537

 Free energy of the ion-electron system (eV)
  ---------------------------------------------------
  alpha Z        PSCENC =       262.47990408
  Ewald energy   TEWEN  =    139516.72258219
  -Hartree energ DENC   =   -151883.74457135
  -exchange      EXHF   =         0.00000000
  -V(xc)+E(xc)   XCENC  =        84.46201216
  PAW double counting   =     12413.95049139   -11962.40626414
  entropy T*S    EENTRO =        -0.01801471
  eigenvalues    EBANDS =      -833.99000651
  atomic energy  EATOM  =     12232.59423587
  Solvation  Ediel_sol  =         0.00000000
  ---------------------------------------------------
  free energy    TOTEN  =      -169.94963101 eV

  energy without entropy =     -169.93161630  energy(sigma->0) =     -169.94062366


--------------------------------------------------------------------------------------------------------




--------------------------------------- Iteration      1(   9)  ---------------------------------------


    POTLOK:  cpu time    0.1222: real time    0.1224
    SETDIJ:  cpu time    0.0093: real time    0.0093
     EDDAV:  cpu time    2.8457: real time    2.8515
       DOS:  cpu time    0.0011: real time    0.0011
    CHARGE:  cpu time    0.1614: real time    0.1616
    MIXING:  cpu time    0.0032: real time    0.0032
    --------------------------------------------
      LOOP:  cpu time    3.1430: real time    3.1491

 eigenvalue-minimisations  :  1024
 total energy-change (2. order) : 0.2666356E+02  (-0.4691233E+01)
 number of electron     169.9999973 magnetization 
 augmentation part       48.3265272 magnetization 

 Broyden mixing:
  rms(total) = 0.52098E+01    rms(broyden)= 0.52098E+01
  rms(prec ) = 0.63364E+01
  weight for this iteration     100.00

 eigenvalues of (default mixing * dielectric matrix)
  average eigenvalue GAMMA=   0.5924
  1.4970  0.3992  0.3992  0.0742

 Free energy of the ion-electron system (eV)
  ---------------------------------------------------
  alpha Z        PSCENC =       262.47990408
  Ewald energy   TEWEN  =    139516.72258219
  -Hartree energ DENC   =   -151856.40220497
  -exchange      EXHF   =         0.00000000
  -V(xc)+E(xc)   XCENC  =        83.80683400
  PAW double counting   =     12654.69812148   -12206.93858728
  entropy T*S    EENTRO =        -0.03054489
  eigenvalues    EBANDS =      -830.21641373
  atomic energy  EATOM  =     12232.59423587
  Solvation  Ediel_sol  =         0.00000000
  ---------------------------------------------------
  free energy    TOTEN  =      -143.28607325 eV

  energy without entropy =     -143.25552836  energy(sigma->0) =     -143.27080080


--------------------------------------------------------------------------------------------------------




--------------------------------------- Iteration      1(  10)  ---------------------------------------


    POTLOK:  cpu time    0.1190: real time    0.1191
    SETDIJ:  cpu time    0.0095: real time    0.0095
     EDDAV:  cpu time    2.6169: real time    2.6226
       DOS:  cpu time    0.0013: real time    0.0013
    CHARGE:  cpu time    0.1637: real time    0.1666
    MIXING:  cpu time    0.0033: real time    0.0033
    --------------------------------------------
      LOOP:  cpu time    2.9137: real time    2.9223

 eigenvalue-minimisations  :   952
 total energy-change (2. order) :-0.1626933E+02  (-0.5497533E+01)
 number of electron     169.9999961 magnetization 
 augmentation part       49.4255240 magnetization 

 Broyden mixing:
  rms(total) = 0.64426E+01    rms(broyden)= 0.64426E+01
  rms(prec ) = 0.79925E+01
  weight for this iteration     100.00

 eigenvalues of (default mixing * dielectric matrix)
  average eigenvalue GAMMA=   0.6459
  2.0007  0.6715  0.0729  0.2422  0.2422

 Free energy of the ion-electron system (eV)
  ---------------------------------------------------
  alpha Z        PSCENC =       262.47990408
  Ewald energy   TEWEN  =    139516.72258219
  -Hartree energ DENC   =   -151778.42187582
  -exchange      EXHF   =         0.00000000
  -V(xc)+E(xc)   XCENC  =        83.43175668
  PAW double counting   =     13138.36510622   -12697.60292930
  entropy T*S    EENTRO =        -0.02296289
  eigenvalues    EBANDS =      -917.10121554
  atomic energy  EATOM  =     12232.59423587
  Solvation  Ediel_sol  =         0.00000000
  ---------------------------------------------------
  free energy    TOTEN  =      -159.55539851 eV

  energy without entropy =     -159.53243562  energy(sigma->0) =     -159.54391706


--------------------------------------------------------------------------------------------------------




--------------------------------------- Iteration      1(  11)  ---------------------------------------


    POTLOK:  cpu time    0.1175: real time    0.1176
    SETDIJ:  cpu time    0.0095: real time    0.0095
     EDDAV:  cpu time    2.8243: real time    2.8334
       DOS:  cpu time    0.0016: real time    0.0016
    CHARGE:  cpu time    0.1650: real time    0.1651
    MIXING:  cpu time    0.0037: real time    0.0037
    --------------------------------------------
      LOOP:  cpu time    3.1215: real time    3.1308

 eigenvalue-minimisations  :  1048
 total energy-change (2. order) : 0.4482040E+02  (-0.7494227E+01)
 number of electron     169.9999964 magnetization 
 augmentation part       50.2358687 magnetization 

 Broyden mixing:
  rms(total) = 0.36612E+01    rms(broyden)= 0.36612E+01
  rms(prec ) = 0.40694E+01
  weight for this iteration     100.00

 eigenvalues of (default mixing * dielectric matrix)
  average eigenvalue GAMMA=   0.6414
  2.2318  0.6670  0.0731  0.2766  0.2766  0.3234

 Free energy of the ion-electron system (eV)
  ---------------------------------------------------
  alpha Z        PSCENC =       262.47990408
  Ewald energy   TEWEN  =    139516.72258219
  -Hartree energ DENC   =   -151839.85332219
  -exchange      EXHF   =         0.00000000
  -V(xc)+E(xc)   XCENC  =        83.28204361
  PAW double counting   =     13476.88004955   -13040.75194506
  entropy T*S    EENTRO =        -0.03588463
  eigenvalues    EBANDS =      -806.05266265
  atomic energy  EATOM  =     12232.59423587
  Solvation  Ediel_sol  =         0.00000000
  ---------------------------------------------------
  free energy    TOTEN  =      -114.73499922 eV

  energy without entropy =     -114.69911460  energy(sigma->0) =     -114.71705691


--------------------------------------------------------------------------------------------------------




--------------------------------------- Iteration      1(  12)  ---------------------------------------


    POTLOK:  cpu time    0.1166: real time    0.1167
    SETDIJ:  cpu time    0.0095: real time    0.0095
     EDDAV:  cpu time    2.6336: real time    2.6420
       DOS:  cpu time    0.0013: real time    0.0013
    CHARGE:  cpu time    0.1653: real time    0.1654
    MIXING:  cpu time    0.0039: real time    0.0039
    --------------------------------------------
      LOOP:  cpu time    2.9302: real time    2.9388

 eigenvalue-minimisations  :   944
 total energy-change (2. order) : 0.1794057E+01  (-0.1919600E+01)
 number of electron     169.9999967 magnetization 
 augmentation part       50.7072593 magnetization 

 Broyden mixing:
  rms(total) = 0.37137E+01    rms(broyden)= 0.37137E+01
  rms(prec ) = 0.41638E+01
  weight for this iteration     100.00

 eigenvalues of (default mixing * dielectric matrix)
  average eigenvalue GAMMA=   0.8562
  3.7907  0.6024  0.6024  0.0731  0.3439  0.3439  0.2369

 Free energy of the ion-electron system (eV)
  ---------------------------------------------------
  alpha Z        PSCENC =       262.47990408
  Ewald energy   TEWEN  =    139516.72258219
  -Hartree energ DENC   =   -151744.12691143
  -exchange      EXHF   =         0.00000000
  -V(xc)+E(xc)   XCENC  =        82.89964291
  PAW double counting   =     13673.63449650   -13239.78271193
  entropy T*S    EENTRO =        -0.02559847
  eigenvalues    EBANDS =      -897.33658179
  atomic energy  EATOM  =     12232.59423587
  Solvation  Ediel_sol  =         0.00000000
  ---------------------------------------------------
  free energy    TOTEN  =      -112.94094207 eV

  energy without entropy =     -112.91534360  energy(sigma->0) =     -112.92814284


--------------------------------------------------------------------------------------------------------




--------------------------------------- Iteration      1(  13)  ---------------------------------------


    POTLOK:  cpu time    0.1169: real time    0.1170
    SETDIJ:  cpu time    0.0094: real time    0.0094
     EDDAV:  cpu time    2.5068: real time    2.5123
       DOS:  cpu time    0.0013: real time    0.0013
    CHARGE:  cpu time    0.1685: real time    0.1687
    MIXING:  cpu time    0.0037: real time    0.0038
    --------------------------------------------
      LOOP:  cpu time    2.8067: real time    2.8125

 eigenvalue-minimisations  :   904
 total energy-change (2. order) : 0.4432871E+01  (-0.9182855E+00)
 number of electron     169.9999969 magnetization 
 augmentation part       51.5810541 magnetization 

 Broyden mixing:
  rms(total) = 0.27687E+01    rms(broyden)= 0.27686E+01
  rms(prec ) = 0.34245E+01
  weight for this iteration     100.00

 eigenvalues of (default mixing * dielectric matrix)
  average eigenvalue GAMMA=   0.8757
  3.8667  1.0801  0.5827  0.5827  0.0731  0.2893  0.2893  0.2416

 Free energy of the ion-electron system (eV)
  ---------------------------------------------------
  alpha Z        PSCENC =       262.47990408
  Ewald energy   TEWEN  =    139516.72258219
  -Hartree energ DENC   =   -151670.56221561
  -exchange      EXHF   =         0.00000000
  -V(xc)+E(xc)   XCENC  =        81.73762412
  PAW double counting   =     14382.69682682   -13957.04742228
  entropy T*S    EENTRO =        -0.04241609
  eigenvalues    EBANDS =      -957.08718971
  atomic energy  EATOM  =     12232.59423587
  Solvation  Ediel_sol  =         0.00000000
  ---------------------------------------------------
  free energy    TOTEN  =      -108.50807062 eV

  energy without entropy =     -108.46565453  energy(sigma->0) =     -108.48686257


--------------------------------------------------------------------------------------------------------




--------------------------------------- Iteration      1(  14)  ---------------------------------------


    POTLOK:  cpu time    0.1186: real time    0.1187
    SETDIJ:  cpu time    0.0098: real time    0.0098
     EDDAV:  cpu time    2.6163: real time    2.6197
       DOS:  cpu time    0.0014: real time    0.0014
    CHARGE:  cpu time    0.1544: real time    0.1547
    MIXING:  cpu time    0.0042: real time    0.0042
    --------------------------------------------
      LOOP:  cpu time    2.9048: real time    2.9086

 eigenvalue-minimisations  :   928
 total energy-change (2. order) :-0.1424752E+01  (-0.6876480E+00)
 number of electron     169.9999972 magnetization 
 augmentation part       51.1536502 magnetization 

 Broyden mixing:
  rms(total) = 0.24315E+01    rms(broyden)= 0.24314E+01
  rms(prec ) = 0.31971E+01
  weight for this iteration     100.00

 eigenvalues of (default mixing * dielectric matrix)
  average eigenvalue GAMMA=   0.8267
  3.8366  1.1437  0.5929  0.5929  0.0731  0.3113  0.3113  0.3368  0.2421

 Free energy of the ion-electron system (eV)
  ---------------------------------------------------
  alpha Z        PSCENC =       262.47990408
  Ewald energy   TEWEN  =    139516.72258219
  -Hartree energ DENC   =   -151746.50103824
  -exchange      EXHF   =         0.00000000
  -V(xc)+E(xc)   XCENC  =        82.05044638
  PAW double counting   =     14498.96039962   -14073.33700941
  entropy T*S    EENTRO =        -0.03261491
  eigenvalues    EBANDS =      -882.86972869
  atomic energy  EATOM  =     12232.59423587
  Solvation  Ediel_sol  =         0.00000000
  ---------------------------------------------------
  free energy    TOTEN  =      -109.93282309 eV

  energy without entropy =     -109.90020819  energy(sigma->0) =     -109.91651564


--------------------------------------------------------------------------------------------------------




--------------------------------------- Iteration      1(  15)  ---------------------------------------


    POTLOK:  cpu time    0.1158: real time    0.1159
    SETDIJ:  cpu time    0.0095: real time    0.0095
     EDDAV:  cpu time    2.6499: real time    2.6537
       DOS:  cpu time    0.0012: real time    0.0012
    CHARGE:  cpu time    0.1663: real time    0.1667
    MIXING:  cpu time    0.0043: real time    0.0043
    --------------------------------------------
      LOOP:  cpu time    2.9471: real time    2.9513

 eigenvalue-minimisations  :   968
 total energy-change (2. order) : 0.5620116E+01  (-0.6971496E+00)
 number of electron     169.9999976 magnetization 
 augmentation part       51.0913758 magnetization 

 Broyden mixing:
  rms(total) = 0.18779E+01    rms(broyden)= 0.18779E+01
  rms(prec ) = 0.24178E+01
  weight for this iteration     100.00

 eigenvalues of (default mixing * dielectric matrix)
  average eigenvalue GAMMA=   0.7901
  3.8317  0.8031  0.8031  0.6690  0.6690  0.0731  0.2982  0.2982  0.2366  0.2189

 Free energy of the ion-electron system (eV)
  ---------------------------------------------------
  alpha Z        PSCENC =       262.47990408
  Ewald energy   TEWEN  =    139516.72258219
  -Hartree energ DENC   =   -151782.41686850
  -exchange      EXHF   =         0.00000000
  -V(xc)+E(xc)   XCENC  =        82.22893514
  PAW double counting   =     14502.64528769   -14076.63081718
  entropy T*S    EENTRO =        -0.02474477
  eigenvalues    EBANDS =      -841.91122188
  atomic energy  EATOM  =     12232.59423587
  Solvation  Ediel_sol  =         0.00000000
  ---------------------------------------------------
  free energy    TOTEN  =      -104.31270736 eV

  energy without entropy =     -104.28796259  energy(sigma->0) =     -104.30033498


--------------------------------------------------------------------------------------------------------




--------------------------------------- Iteration      1(  16)  ---------------------------------------


    POTLOK:  cpu time    0.1170: real time    0.1171
    SETDIJ:  cpu time    0.0095: real time    0.0123
     EDDAV:  cpu time    2.7738: real time    2.7778
       DOS:  cpu time    0.0010: real time    0.0010
    CHARGE:  cpu time    0.1613: real time    0.1615
    MIXING:  cpu time    0.0044: real time    0.0044
    --------------------------------------------
      LOOP:  cpu time    3.0670: real time    3.0740

 eigenvalue-minimisations  :  1040
 total energy-change (2. order) : 0.3859734E+01  (-0.7228460E+00)
 number of electron     169.9999976 magnetization 
 augmentation part       51.0670949 magnetization 

 Broyden mixing:
  rms(total) = 0.75151E+00    rms(broyden)= 0.75135E+00
  rms(prec ) = 0.76417E+00
  weight for this iteration     100.00

 eigenvalues of (default mixing * dielectric matrix)
  average eigenvalue GAMMA=   0.7212
  3.8180  0.6663  0.6663  0.8075  0.8075  0.0731  0.2983  0.2983  0.2366  0.2212
  0.0398

 Free energy of the ion-electron system (eV)
  ---------------------------------------------------
  alpha Z        PSCENC =       262.47990408
  Ewald energy   TEWEN  =    139516.72258219
  -Hartree energ DENC   =   -151804.12518265
  -exchange      EXHF   =         0.00000000
  -V(xc)+E(xc)   XCENC  =        82.38969302
  PAW double counting   =     14500.71470818   -14074.25911415
  entropy T*S    EENTRO =        -0.03109973
  eigenvalues    EBANDS =      -816.93870043
  atomic energy  EATOM  =     12232.59423587
  Solvation  Ediel_sol  =         0.00000000
  ---------------------------------------------------
  free energy    TOTEN  =      -100.45297362 eV

  energy without entropy =     -100.42187389  energy(sigma->0) =     -100.43742375


--------------------------------------------------------------------------------------------------------




--------------------------------------- Iteration      1(  17)  ---------------------------------------


    POTLOK:  cpu time    0.1198: real time    0.1199
    SETDIJ:  cpu time    0.0094: real time    0.0094
     EDDAV:  cpu time    2.5373: real time    2.5433
       DOS:  cpu time    0.0014: real time    0.0014
    CHARGE:  cpu time    0.1716: real time    0.1720
    MIXING:  cpu time    0.0081: real time    0.0081
    --------------------------------------------
      LOOP:  cpu time    2.8476: real time    2.8540

 eigenvalue-minimisations  :   904
 total energy-change (2. order) : 0.2940282E-01  (-0.3745926E-01)
 number of electron     169.9999976 magnetization 
 augmentation part       51.0246457 magnetization 

 Broyden mixing:
  rms(total) = 0.74199E+00    rms(broyden)= 0.74199E+00
  rms(prec ) = 0.75418E+00
  weight for this iteration     100.00

 eigenvalues of (default mixing * dielectric matrix)
  average eigenvalue GAMMA=   0.6755
  3.8554  0.8027  0.8027  0.6810  0.6810  0.2977  0.2977  0.0731  0.2373  0.2214
  0.0777  0.0777

 Free energy of the ion-electron system (eV)
  ---------------------------------------------------
  alpha Z        PSCENC =       262.47990408
  Ewald energy   TEWEN  =    139516.72258219
  -Hartree energ DENC   =   -151804.16712190
  -exchange      EXHF   =         0.00000000
  -V(xc)+E(xc)   XCENC  =        82.38576147
  PAW double counting   =     14501.61228641   -14075.20873028
  entropy T*S    EENTRO =        -0.03920757
  eigenvalues    EBANDS =      -816.80328106
  atomic energy  EATOM  =     12232.59423587
  Solvation  Ediel_sol  =         0.00000000
  ---------------------------------------------------
  free energy    TOTEN  =      -100.42357079 eV

  energy without entropy =     -100.38436322  energy(sigma->0) =     -100.40396701


--------------------------------------------------------------------------------------------------------




--------------------------------------- Iteration      1(  18)  ---------------------------------------


    POTLOK:  cpu time    0.1195: real time    0.1196
    SETDIJ:  cpu time    0.0096: real time    0.0096
     EDDAV:  cpu time    3.2055: real time    3.2178
       DOS:  cpu time    0.0014: real time    0.0014
    CHARGE:  cpu time    0.1649: real time    0.1678
    MIXING:  cpu time    0.0045: real time    0.0045
    --------------------------------------------
      LOOP:  cpu time    3.5053: real time    3.5206

 eigenvalue-minimisations  :  1240
 total energy-change (2. order) :-0.1354526E-01  (-0.1454873E-02)
 number of electron     169.9999976 magnetization 
 augmentation part       51.0295141 magnetization 

 Broyden mixing:
  rms(total) = 0.73830E+00    rms(broyden)= 0.73830E+00
  rms(prec ) = 0.75194E+00
  weight for this iteration     100.00

 eigenvalues of (default mixing * dielectric matrix)
  average eigenvalue GAMMA=   0.6980
  3.6874  0.8584  0.8584  0.7364  0.7364  0.4206  0.4206  0.0731  0.3108  0.3108
  0.2228  0.2228  0.2149

 Free energy of the ion-electron system (eV)
  ---------------------------------------------------
  alpha Z        PSCENC =       262.47990408
  Ewald energy   TEWEN  =    139516.72258219
  -Hartree energ DENC   =   -151805.77312228
  -exchange      EXHF   =         0.00000000
  -V(xc)+E(xc)   XCENC  =        82.38821627
  PAW double counting   =     14500.02392289   -14073.69007517
  entropy T*S    EENTRO =        -0.03827247
  eigenvalues    EBANDS =      -815.14450742
  atomic energy  EATOM  =     12232.59423587
  Solvation  Ediel_sol  =         0.00000000
  ---------------------------------------------------
  free energy    TOTEN  =      -100.43711605 eV

  energy without entropy =     -100.39884358  energy(sigma->0) =     -100.41797982


--------------------------------------------------------------------------------------------------------




--------------------------------------- Iteration      1(  19)  ---------------------------------------


    POTLOK:  cpu time    0.1206: real time    0.1207
    SETDIJ:  cpu time    0.0097: real time    0.0097
     EDDAV:  cpu time    2.6313: real time    2.6381
       DOS:  cpu time    0.0014: real time    0.0014
    CHARGE:  cpu time    0.1675: real time    0.1677
    MIXING:  cpu time    0.0051: real time    0.0051
    --------------------------------------------
      LOOP:  cpu time    2.9355: real time    2.9426

 eigenvalue-minimisations  :   968
 total energy-change (2. order) :-0.1542653E+00  (-0.6812219E-01)
 number of electron     169.9999979 magnetization 
 augmentation part       51.0362362 magnetization 

 Broyden mixing:
  rms(total) = 0.99727E+00    rms(broyden)= 0.99723E+00
  rms(prec ) = 0.10786E+01
  weight for this iteration     100.00

 eigenvalues of (default mixing * dielectric matrix)
  average eigenvalue GAMMA=   0.7022
  3.6978  1.0033  1.0033  1.0696  0.4592  0.4592  0.4333  0.0731  0.3239  0.3239
  0.2655  0.2655  0.2501  0.2031

 Free energy of the ion-electron system (eV)
  ---------------------------------------------------
  alpha Z        PSCENC =       262.47990408
  Ewald energy   TEWEN  =    139516.72258219
  -Hartree energ DENC   =   -151806.60310812
  -exchange      EXHF   =         0.00000000
  -V(xc)+E(xc)   XCENC  =        82.48799158
  PAW double counting   =     14379.27942210   -13952.38623989
  entropy T*S    EENTRO =        -0.04659976
  eigenvalues    EBANDS =      -815.11956944
  atomic energy  EATOM  =     12232.59423587
  Solvation  Ediel_sol  =         0.00000000
  ---------------------------------------------------
  free energy    TOTEN  =      -100.59138140 eV

  energy without entropy =     -100.54478164  energy(sigma->0) =     -100.56808152


--------------------------------------------------------------------------------------------------------




--------------------------------------- Iteration      1(  20)  ---------------------------------------


    POTLOK:  cpu time    0.1158: real time    0.1186
    SETDIJ:  cpu time    0.0098: real time    0.0099
     EDDAV:  cpu time    2.6168: real time    2.6216
       DOS:  cpu time    0.0011: real time    0.0011
    CHARGE:  cpu time    0.1720: real time    0.1721
    MIXING:  cpu time    0.0053: real time    0.0053
    --------------------------------------------
      LOOP:  cpu time    2.9208: real time    2.9286

 eigenvalue-minimisations  :   928
 total energy-change (2. order) :-0.9975832E-01  (-0.2211670E-01)
 number of electron     169.9999978 magnetization 
 augmentation part       50.9671307 magnetization 

 Broyden mixing:
  rms(total) = 0.90559E+00    rms(broyden)= 0.90559E+00
  rms(prec ) = 0.10338E+01
  weight for this iteration     100.00

 eigenvalues of (default mixing * dielectric matrix)
  average eigenvalue GAMMA=   0.7358
  3.7569  1.3504  1.3504  0.9881  0.5459  0.5459  0.5500  0.0731  0.2958  0.2958
  0.3063  0.3063  0.2338  0.2338  0.2051

 Free energy of the ion-electron system (eV)
  ---------------------------------------------------
  alpha Z        PSCENC =       262.47990408
  Ewald energy   TEWEN  =    139516.72258219
  -Hartree energ DENC   =   -151808.42407398
  -exchange      EXHF   =         0.00000000
  -V(xc)+E(xc)   XCENC  =        82.55049149
  PAW double counting   =     14320.77753938   -13893.81412869
  entropy T*S    EENTRO =        -0.05659890
  eigenvalues    EBANDS =      -813.52109117
  atomic energy  EATOM  =     12232.59423587
  Solvation  Ediel_sol  =         0.00000000
  ---------------------------------------------------
  free energy    TOTEN  =      -100.69113972 eV

  energy without entropy =     -100.63454082  energy(sigma->0) =     -100.66284027


--------------------------------------------------------------------------------------------------------




--------------------------------------- Iteration      1(  21)  ---------------------------------------


    POTLOK:  cpu time    0.1214: real time    0.1217
    SETDIJ:  cpu time    0.0095: real time    0.0095
     EDDAV:  cpu time    2.5884: real time    2.5919
       DOS:  cpu time    0.0011: real time    0.0011
    CHARGE:  cpu time    0.1705: real time    0.1707
    MIXING:  cpu time    0.0053: real time    0.0053
    --------------------------------------------
      LOOP:  cpu time    2.8963: real time    2.9003

 eigenvalue-minimisations  :   944
 total energy-change (2. order) : 0.7828559E-01  (-0.5802040E-01)
 number of electron     169.9999974 magnetization 
 augmentation part       50.9566075 magnetization 

 Broyden mixing:
  rms(total) = 0.70686E+00    rms(broyden)= 0.70684E+00
  rms(prec ) = 0.77256E+00
  weight for this iteration     100.00

 eigenvalues of (default mixing * dielectric matrix)
  average eigenvalue GAMMA=   0.7851
  3.6151  1.8809  1.8809  0.8783  0.8783  0.5948  0.5948  0.3166  0.3166  0.0731
  0.3057  0.3057  0.2335  0.2335  0.2392  0.2153

 Free energy of the ion-electron system (eV)
  ---------------------------------------------------
  alpha Z        PSCENC =       262.47990408
  Ewald energy   TEWEN  =    139516.72258219
  -Hartree energ DENC   =   -151811.99313055
  -exchange      EXHF   =         0.00000000
  -V(xc)+E(xc)   XCENC  =        82.61594347
  PAW double counting   =     14244.34015135   -13817.36788384
  entropy T*S    EENTRO =        -0.06343535
  eigenvalues    EBANDS =      -809.94122134
  atomic energy  EATOM  =     12232.59423587
  Solvation  Ediel_sol  =         0.00000000
  ---------------------------------------------------
  free energy    TOTEN  =      -100.61285412 eV

  energy without entropy =     -100.54941877  energy(sigma->0) =     -100.58113645


--------------------------------------------------------------------------------------------------------




--------------------------------------- Iteration      1(  22)  ---------------------------------------


    POTLOK:  cpu time    0.1201: real time    0.1202
    SETDIJ:  cpu time    0.0096: real time    0.0096
     EDDAV:  cpu time    2.4980: real time    2.5014
       DOS:  cpu time    0.0012: real time    0.0012
    CHARGE:  cpu time    0.1577: real time    0.1580
    MIXING:  cpu time    0.0056: real time    0.0056
    --------------------------------------------
      LOOP:  cpu time    2.7922: real time    2.7959

 eigenvalue-minimisations  :   888
 total energy-change (2. order) :-0.6790424E+00  (-0.1106033E+00)
 number of electron     169.9999971 magnetization 
 augmentation part       50.8678393 magnetization 

 Broyden mixing:
  rms(total) = 0.10529E+01    rms(broyden)= 0.10529E+01
  rms(prec ) = 0.12985E+01
  weight for this iteration     100.00

 eigenvalues of (default mixing * dielectric matrix)
  average eigenvalue GAMMA=   0.7664
  3.4089  2.1011  2.1011  0.8581  0.8581  0.5747  0.5747  0.3251  0.3251  0.0731
  0.3085  0.3085  0.2694  0.2694  0.2295  0.2215  0.2215

 Free energy of the ion-electron system (eV)
  ---------------------------------------------------
  alpha Z        PSCENC =       262.47990408
  Ewald energy   TEWEN  =    139516.72258219
  -Hartree energ DENC   =   -151828.87480538
  -exchange      EXHF   =         0.00000000
  -V(xc)+E(xc)   XCENC  =        82.81713539
  PAW double counting   =     14056.97157981   -13629.43214098
  entropy T*S    EENTRO =        -0.04777009
  eigenvalues    EBANDS =      -794.52261743
  atomic energy  EATOM  =     12232.59423587
  Solvation  Ediel_sol  =         0.00000000
  ---------------------------------------------------
  free energy    TOTEN  =      -101.29189653 eV

  energy without entropy =     -101.24412644  energy(sigma->0) =     -101.26801148


--------------------------------------------------------------------------------------------------------




--------------------------------------- Iteration      1(  23)  ---------------------------------------


    POTLOK:  cpu time    0.1180: real time    0.1208
    SETDIJ:  cpu time    0.0097: real time    0.0097
     EDDAV:  cpu time    2.5126: real time    2.5165
       DOS:  cpu time    0.0012: real time    0.0012
    CHARGE:  cpu time    0.1727: real time    0.1729
    MIXING:  cpu time    0.0059: real time    0.0059
    --------------------------------------------
      LOOP:  cpu time    2.8201: real time    2.8271

 eigenvalue-minimisations  :   904
 total energy-change (2. order) : 0.2057869E+00  (-0.7633661E-02)
 number of electron     169.9999972 magnetization 
 augmentation part       50.8908058 magnetization 

 Broyden mixing:
  rms(total) = 0.98063E+00    rms(broyden)= 0.98063E+00
  rms(prec ) = 0.12339E+01
  weight for this iteration     100.00

 eigenvalues of (default mixing * dielectric matrix)
  average eigenvalue GAMMA=   0.8212
  3.8878  2.1753  2.1753  0.8140  0.8140  0.8249  0.6076  0.6076  0.6022  0.3227
  0.3227  0.0731  0.3108  0.3108  0.2375  0.2375  0.2391  0.2179

 Free energy of the ion-electron system (eV)
  ---------------------------------------------------
  alpha Z        PSCENC =       262.47990408
  Ewald energy   TEWEN  =    139516.72258219
  -Hartree energ DENC   =   -151833.05122690
  -exchange      EXHF   =         0.00000000
  -V(xc)+E(xc)   XCENC  =        82.93010609
  PAW double counting   =     14000.67510518   -13572.75413569
  entropy T*S    EENTRO =        -0.05868005
  eigenvalues    EBANDS =      -790.62400040
  atomic energy  EATOM  =     12232.59423587
[...]
     26      -5.7100      2.00000
     27      -5.6668      2.00000
     28      -5.6628      2.00000
     29      -5.6525      2.00000
     30      -5.5929      2.00000
     31      -5.5411      2.00000
     32      -5.3966      2.00000
     33      -5.3416      2.00000
     34      -5.1772      2.00000
     35      -5.1216      2.00000
     36      -5.0664      2.00000
     37      -5.0176      2.00000
     38      -4.9986      2.00000
     39      -4.9312      2.00000
     40      -4.8674      2.00000
     41      -4.8002      2.00000
     42      -4.7574      2.00000
     43      -4.6771      2.00000
     44      -4.6344      2.00000
     45      -4.5239      2.00000
     46      -4.4914      2.00000
     47      -4.4707      2.00000
     48      -4.4267      2.00000
     49      -4.3127      2.00000
     50      -4.3020      2.00000
     51      -4.2488      2.00000
     52      -4.2371      2.00000
     53      -4.2177      2.00000
     54      -4.1699      2.00000
     55      -4.0873      2.00000
     56      -3.9650      2.00000
     57      -3.8052      2.00000
     58      -3.7343      2.00000
     59      -3.6583      2.00000
     60      -3.6384      2.00000
     61      -3.6226      2.00000
     62      -3.5804      2.00000
     63      -3.5245      2.00000
     64      -3.3807      2.00000
     65      -3.3739      2.00000
     66      -3.2571      2.00000
     67      -3.1617      2.00000
     68      -3.1239      2.00000
     69      -3.1010      2.00000
     70      -3.0366      2.00000
     71      -2.9408      2.00000
     72      -2.9159      2.00000
     73      -2.8701      2.00000
     74      -2.8539      2.00000
     75      -2.8210      2.00000
     76      -2.7580      2.00000
     77      -2.6586      2.00000
     78      -2.6390      2.00000
     79      -2.4472      2.00000
     80      -2.1676      2.00000
     81      -2.1290      2.00000
     82      -2.0009      2.00000
     83      -1.8091      2.00000
     84      -1.6456      1.99997
     85      -1.6391      1.99993
     86      -1.5808      1.98025
     87      -1.5271      1.58405
     88      -1.4983      0.99802
     89      -1.4574      0.24631
     90      -1.4478      0.15278
     91      -0.8049      0.00000
     92       0.2040      0.00000
     93       0.3066      0.00000
     94       0.3396      0.00000
     95       0.4143      0.00000
     96       0.6736      0.00000
     97       1.1445      0.00000
     98       1.3906      0.00000
     99       1.9356      0.00000
    100       2.1298      0.00000
    101       2.6583      0.00000
    102       2.9221      0.00000
    103       3.4864      0.00000
    104       4.1149      0.00000

 k-point     4 :       0.5000    0.5000    0.0000
  band No.  band energies     occupation 
      1     -24.2782      2.00000
      2     -11.5550      2.00000
      3      -8.7159      2.00000
      4      -8.6978      2.00000
      5      -8.3145      2.00000
      6      -8.0906      2.00000
      7      -7.6696      2.00000
      8      -7.6246      2.00000
      9      -7.4796      2.00000
     10      -7.0023      2.00000
     11      -6.9756      2.00000
     12      -6.8327      2.00000
     13      -6.8000      2.00000
     14      -6.7137      2.00000
     15      -6.6982      2.00000
     16      -6.6580      2.00000
     17      -6.6255      2.00000
     18      -6.4331      2.00000
     19      -6.4101      2.00000
     20      -6.2258      2.00000
     21      -6.1658      2.00000
     22      -6.0661      2.00000
     23      -6.0615      2.00000
     24      -6.0009      2.00000
     25      -5.9773      2.00000
     26      -5.7549      2.00000
     27      -5.7050      2.00000
     28      -5.6596      2.00000
     29      -5.6505      2.00000
     30      -5.6436      2.00000
     31      -5.6019      2.00000
     32      -5.4103      2.00000
     33      -5.3781      2.00000
     34      -5.2986      2.00000
     35      -5.2447      2.00000
     36      -5.1789      2.00000
     37      -5.1551      2.00000
     38      -5.0725      2.00000
     39      -5.0459      2.00000
     40      -4.9333      2.00000
     41      -4.8911      2.00000
     42      -4.7749      2.00000
     43      -4.6660      2.00000
     44      -4.5680      2.00000
     45      -4.5505      2.00000
     46      -4.5388      2.00000
     47      -4.4548      2.00000
     48      -4.4391      2.00000
     49      -4.3511      2.00000
     50      -4.3283      2.00000
     51      -4.2822      2.00000
     52      -4.2490      2.00000
     53      -4.1845      2.00000
     54      -4.1747      2.00000
     55      -3.9769      2.00000
     56      -3.9358      2.00000
     57      -3.7986      2.00000
     58      -3.7412      2.00000
     59      -3.6699      2.00000
     60      -3.6353      2.00000
     61      -3.5888      2.00000
     62      -3.4787      2.00000
     63      -3.3958      2.00000
     64      -3.3197      2.00000
     65      -3.3017      2.00000
     66      -3.2280      2.00000
     67      -3.1975      2.00000
     68      -3.1408      2.00000
     69      -3.0596      2.00000
     70      -3.0301      2.00000
     71      -3.0249      2.00000
     72      -3.0029      2.00000
     73      -2.9529      2.00000
     74      -2.8692      2.00000
     75      -2.7630      2.00000
     76      -2.7292      2.00000
     77      -2.6506      2.00000
     78      -2.5934      2.00000
     79      -2.2824      2.00000
     80      -2.2356      2.00000
     81      -2.1736      2.00000
     82      -2.0537      2.00000
     83      -1.7627      2.00000
     84      -1.7339      2.00000
     85      -1.7156      2.00000
     86      -1.6676      2.00000
     87      -1.5777      1.97517
     88      -1.4795      0.59340
     89      -1.3168      0.00000
     90      -1.2863      0.00000
     91      -0.2586      0.00000
     92       0.1842      0.00000
     93       0.2935      0.00000
     94       0.3383      0.00000
     95       0.5949      0.00000
     96       0.7083      0.00000
     97       1.2859      0.00000
     98       1.3119      0.00000
     99       1.8961      0.00000
    100       2.3699      0.00000
    101       2.4626      0.00000
    102       3.2845      0.00000
    103       3.5028      0.00000
    104       4.1498      0.00000


--------------------------------------------------------------------------------------------------------


 soft charge-density along one line, spin component            1
         0         1         2         3         4         5         6         7         8         9
 total charge-density along one line
 
 pseudopotential strength for first ion, spin component:            1
 -7.196  -0.007   0.001  -0.016   0.001  -7.277  -0.007   0.001
 -0.007  -7.027  -0.004   0.001  -0.005  -0.007  -7.112  -0.004
  0.001  -0.004  -7.023  -0.003  -0.001   0.001  -0.004  -7.108
 -0.016   0.001  -0.003  -7.031  -0.007  -0.016   0.001  -0.003
  0.001  -0.005  -0.001  -0.007  -7.198   0.001  -0.005  -0.001
 -7.277  -0.007   0.001  -0.016   0.001  -7.342  -0.006   0.001
 -0.007  -7.112  -0.004   0.001  -0.005  -0.006  -7.182  -0.003
  0.001  -0.004  -7.108  -0.003  -0.001   0.001  -0.003  -7.178
 -0.016   0.001  -0.003  -7.116  -0.006  -0.015   0.001  -0.003
  0.001  -0.005  -0.001  -0.006  -7.279   0.001  -0.005  -0.001
 -0.000   0.004  -0.048   0.004   0.000  -0.000   0.004  -0.048
 -0.001   0.005  -0.071   0.005   0.000  -0.001   0.005  -0.070
 -0.001  -0.002  -0.000   0.000  -0.000  -0.001  -0.002  -0.000
  0.000   0.001  -0.006  -0.001   0.000   0.000   0.001  -0.006
  0.001   0.000   0.001  -0.002  -0.001   0.001   0.000   0.001
 -0.001  -0.000  -0.001   0.000  -0.000  -0.001   0.000  -0.000
  0.000   0.001  -0.005  -0.001  -0.000   0.000   0.001  -0.005
  0.001   0.000   0.001  -0.000  -0.001   0.001   0.000   0.001
 total augmentation occupancy for first ion, spin component:            1
  2.437  -0.051   0.049  -0.252   0.022  -1.468   0.022  -0.039   0.060  -0.007   0.020  -0.002   0.007  -0.003  -0.047   0.000
 -0.051   4.392  -0.069   0.047  -0.147   0.020  -2.377   0.056  -0.037   0.014  -0.075   0.013  -0.231   0.025   0.004   0.011
  0.049  -0.069   3.918  -0.060  -0.041  -0.041   0.058  -2.393   0.063   0.033   0.947  -0.172  -0.011  -0.274   0.001   0.001
 -0.252   0.047  -0.060   4.247  -0.044   0.069  -0.037   0.062  -2.287   0.016  -0.076   0.014   0.006   0.030  -0.218  -0.001
  0.022  -0.147  -0.041  -0.044   2.419  -0.007   0.002   0.032   0.018  -1.459  -0.019   0.001  -0.066   0.008   0.008   0.005
 -1.468   0.020  -0.041   0.069  -0.007   2.103   0.001   0.035   0.069  -0.005  -0.014   0.001  -0.009   0.005   0.044   0.002
  0.022  -2.377   0.058  -0.037   0.002   0.001   2.260  -0.050   0.032   0.089   0.052  -0.004   0.229  -0.020  -0.000  -0.017
 -0.039   0.056  -2.393   0.062   0.032   0.035  -0.050   2.633  -0.066  -0.030  -0.740   0.080   0.006   0.337   0.003   0.000
  0.060  -0.037   0.063  -2.287   0.018   0.069   0.032  -0.066   2.211   0.003   0.054  -0.005  -0.001  -0.027   0.225  -0.001
 -0.007   0.014   0.033   0.016  -1.459  -0.005   0.089  -0.030   0.003   2.094   0.021  -0.003   0.058  -0.003  -0.013  -0.002
  0.020  -0.075   0.947  -0.076  -0.019  -0.014   0.052  -0.740   0.054   0.021   2.364  -0.496  -0.002   0.189  -0.015  -0.001
 -0.002   0.013  -0.172   0.014   0.001   0.001  -0.004   0.080  -0.005  -0.003  -0.496   0.123   0.001  -0.068   0.004   0.000
  0.007  -0.231  -0.011   0.006  -0.066  -0.009   0.229   0.006  -0.001   0.058  -0.002   0.001   0.236   0.004   0.001  -0.014
 -0.003   0.025  -0.274   0.030   0.008   0.005  -0.020   0.337  -0.027  -0.003   0.189  -0.068   0.004   0.131   0.002  -0.000
 -0.047   0.004   0.001  -0.218   0.008   0.044  -0.000   0.003   0.225  -0.013  -0.015   0.004   0.001   0.002   0.240  -0.000
  0.000   0.011   0.001  -0.001   0.005   0.002  -0.017   0.000  -0.001  -0.002  -0.001   0.000  -0.014  -0.000  -0.000   0.001
 -0.000   0.000  -0.000  -0.001  -0.001  -0.001   0.000  -0.015   0.001  -0.001  -0.022   0.006  -0.000  -0.008  -0.000   0.000
  0.005  -0.001   0.001   0.006   0.001  -0.003  -0.000  -0.004  -0.017   0.003   0.006  -0.001  -0.000  -0.000  -0.016   0.000


------------------------ aborting loop because EDIFF is reached ----------------------------------------





 total charge

# of ion       s       p       d       tot
------------------------------------------
    1        0.628   0.390   8.037   9.056
    2        0.633   0.386   8.039   9.059
    3        0.628   0.390   8.039   9.057
    4        0.627   0.391   8.038   9.055
    5        0.606   0.504   8.030   9.139
    6        0.599   0.494   8.038   9.130
    7        0.607   0.511   8.029   9.147
    8        0.599   0.493   8.042   9.134
    9        0.606   0.474   8.010   9.089
   10        0.597   0.447   8.033   9.078
   11        0.605   0.473   8.010   9.088
   12        0.603   0.450   8.026   9.079
   13        0.625   0.464   8.039   9.128
   14        0.604   0.370   8.038   9.012
   15        0.635   0.501   8.014   9.150
   16        0.605   0.363   8.042   9.010
   17        0.891   1.538   0.000   2.428
   18        1.597   3.510   0.000   5.108
--------------------------------------------------
tot         12.294  12.150 128.505 152.949
 
    CHARGE:  cpu time    0.1639: real time    0.1642
    FORLOC:  cpu time    0.0158: real time    0.0158
    FORNL :  cpu time    0.6223: real time    0.6232
    FORCOR:  cpu time    0.1399: real time    0.1400
    FORHAR:  cpu time    0.0484: real time    0.0484
    MIXING:  cpu time    0.0037: real time    0.0037
    OFIELD:  cpu time    0.0000: real time    0.0000

 VOLUME and BASIS-vectors are now :
 -----------------------------------------------------------------------------
  energy-cutoff  :      420.00
  volume of cell :     1013.36
      direct lattice vectors                 reciprocal lattice vectors
     5.633072000  0.000000000  0.215543000     0.177523028 -0.102293022  0.000000000
     2.812412000  4.880762000  0.215543000     0.000000000  0.204886040  0.000000000
     0.000000000  0.000000000 36.857938000    -0.001038144 -0.000599958  0.027131198

  length of vectors
     5.637194244  5.637194137 36.857938000     0.204886036  0.204886040  0.027157680


 FORCES acting on ions
    electron-ion (+dipol)            ewald-force                    non-local-force                 convergence-correction
 -----------------------------------------------------------------------------------------------
   -.118E+03 -.676E+02 0.308E+04   0.118E+03 0.678E+02 -.308E+04   -.873E-01 -.122E+00 -.168E+01   -.139E-01 -.274E-02 0.302E+00
   -.118E+03 -.680E+02 0.308E+04   0.118E+03 0.682E+02 -.308E+04   -.970E-02 -.145E+00 -.145E+01   -.108E-01 -.987E-02 0.294E+00
   -.117E+03 -.677E+02 0.308E+04   0.117E+03 0.678E+02 -.308E+04   -.220E-01 -.860E-01 -.166E+01   -.928E-02 -.217E-02 0.302E+00
   -.118E+03 -.685E+02 0.308E+04   0.118E+03 0.687E+02 -.308E+04   -.230E-01 -.112E+00 -.142E+01   -.120E-01 -.118E-01 0.298E+00
   -.433E+02 -.137E+02 0.116E+04   0.434E+02 0.140E+02 -.116E+04   -.112E+00 -.171E+00 -.327E+00   -.418E-01 -.148E-01 0.105E+01
   -.547E+02 -.282E+02 0.116E+04   0.548E+02 0.286E+02 -.116E+04   -.845E-01 -.104E+00 0.918E-02   -.454E-01 -.270E-01 0.105E+01
   -.444E+02 -.248E+02 0.117E+04   0.445E+02 0.252E+02 -.117E+04   -.148E+00 -.189E+00 -.808E-01   -.388E-01 -.213E-01 0.106E+01
   -.329E+02 -.278E+02 0.116E+04   0.328E+02 0.281E+02 -.116E+04   -.333E-01 -.858E-01 0.790E-02   -.344E-01 -.288E-01 0.105E+01
   0.265E+02 0.190E+02 -.716E+03   -.265E+02 -.190E+02 0.715E+03   -.131E-01 0.327E-01 0.700E+00   -.394E-01 -.220E-01 0.104E+01
   0.324E+02 0.132E+02 -.827E+03   -.327E+02 -.126E+02 0.827E+03   0.124E+00 -.431E+00 -.581E+00   -.410E-01 -.231E-01 0.996E+00
   0.293E+02 0.200E+02 -.720E+03   -.292E+02 -.200E+02 0.719E+03   -.697E-01 0.110E+00 0.462E+00   -.408E-01 -.223E-01 0.104E+01
   0.268E+02 0.118E+02 -.722E+03   -.267E+02 -.117E+02 0.720E+03   -.408E-01 -.128E+00 0.116E+01   -.379E-01 -.233E-01 0.105E+01
   0.181E+03 0.507E+02 -.260E+04   -.181E+03 -.508E+02 0.260E+04   0.473E+00 0.293E+00 -.103E+01   -.446E-02 -.484E-02 0.235E+00
   0.995E+02 0.387E+02 -.261E+04   -.996E+02 -.382E+02 0.261E+04   0.225E+00 -.610E+00 0.107E+01   -.779E-02 -.852E-02 0.264E+00
   0.106E+02 0.531E+02 -.264E+04   -.108E+02 -.534E+02 0.264E+04   0.373E+00 0.465E+00 -.241E+01   -.697E-02 -.224E-02 0.215E+00
   0.965E+02 0.844E+02 -.260E+04   -.968E+02 -.851E+02 0.259E+04   0.316E+00 0.826E+00 0.968E+00   -.104E-01 -.461E-02 0.267E+00
   0.806E+01 -.123E+01 -.125E+04   -.501E+01 0.279E+01 0.124E+04   -.327E+01 -.154E+01 0.992E+01   0.541E-02 0.200E-02 -.643E-01
   0.124E+03 0.720E+02 -.225E+04   -.138E+03 -.803E+02 0.231E+04   0.146E+02 0.845E+01 -.546E+02   0.183E-01 0.144E-01 -.162E+00
 -----------------------------------------------------------------------------------------------
   -.115E+02 -.460E+01 0.400E+02   -.142E-12 0.568E-13 0.000E+00   0.122E+02 0.645E+01 -.509E+02   -.371E+00 -.213E+00 0.103E+02
 
 
 POSITION                                       TOTAL-FORCE (eV/Angst)
 -----------------------------------------------------------------------------------
      0.48351      0.68636     15.00722         0.108779     -0.078212     -0.698789
      1.88972      3.12674     15.11499         0.110497     -0.075297     -0.952437
      3.30005      0.68636     15.11499         0.070028     -0.097840     -0.735428
      4.70625      3.12674     15.22276         0.065313     -0.043475     -0.555703
      1.80312      1.44898     17.37819        -0.071540      0.032509      0.469556
      3.20933      3.88936     17.48597         0.008973      0.132987      0.594579
      4.61966      1.44898     17.48597        -0.102536      0.070980      0.543116
      6.02586      3.88936     17.59374        -0.189858      0.129032      0.540593
      3.08080      1.99537     19.77021        -0.086708     -0.013545      0.131656
      4.47760      4.43360     20.05029        -0.145903      0.016597     -0.051235
      5.90592      1.99736     19.88340        -0.029036      0.021844      0.030100
      7.31102      4.44418     19.98482         0.001386     -0.126610      0.131730
      2.95954      0.04955     22.31678         0.123349      0.046530      0.262147
      4.33895      2.51434     22.29773         0.034795     -0.131613      0.051503
      0.09599      0.04519     22.26470         0.180152      0.079781      0.038070
      1.51942      2.47774     22.18165         0.018464      0.030398      0.092739
      4.31612      0.05197     23.96495        -0.238879     -0.068284      0.354325
      6.83074      4.76117     25.32023         0.142724      0.074219     -0.246521
 -----------------------------------------------------------------------------------
    total drift:                                0.313604      1.635161     -0.672393


--------------------------------------------------------------------------------------------------------



  FREE ENERGIE OF THE ION-ELECTRON SYSTEM (eV)
  ---------------------------------------------------
  free  energy   TOTEN  =      -100.75376560 eV

  energy  without entropy=     -100.69882439  energy(sigma->0) =     -100.72629499
 
 d Force = 0.2075876E-03[ 0.197E-04, 0.395E-03]  d Energy = 0.1205690E-03 0.870E-04
 d Force = 0.1828065E+01[ 0.183E+01, 0.183E+01]  d Ewald  = 0.1828065E+01 0.405E-08


--------------------------------------------------------------------------------------------------------


    POTLOK:  cpu time    0.1343: real time    0.1346


--------------------------------------------------------------------------------------------------------




--------------------------------------------------------------------------------------------------------


  
 reached required accuracy - stopping structural energy minimisation
     LOOP+:  cpu time   19.8627: real time   19.9553
    4ORBIT:  cpu time    0.0000: real time    0.0000



 total charge

# of ion       s       p       d       tot
------------------------------------------
    1        0.628   0.390   8.037   9.056
    2        0.633   0.386   8.039   9.059
    3        0.628   0.390   8.039   9.057
    4        0.627   0.391   8.038   9.055
    5        0.606   0.504   8.030   9.139
    6        0.599   0.494   8.038   9.130
    7        0.607   0.511   8.029   9.147
    8        0.599   0.493   8.042   9.134
    9        0.606   0.474   8.010   9.089
   10        0.597   0.447   8.033   9.078
   11        0.605   0.473   8.010   9.088
   12        0.603   0.450   8.026   9.079
   13        0.625   0.464   8.039   9.128
   14        0.604   0.370   8.038   9.012
   15        0.635   0.501   8.014   9.150
   16        0.605   0.363   8.042   9.010
   17        0.891   1.538   0.000   2.428
   18        1.597   3.510   0.000   5.108
--------------------------------------------------
tot         12.294  12.150 128.505 152.949
 

 total amount of memory used by VASP MPI-rank0    51204. kBytes
=======================================================================

   base      :      30000. kBytes
   nonlr-proj:       1713. kBytes
   fftplans  :       3961. kBytes
   grid      :       7034. kBytes
   one-center:         77. kBytes
   wavefun   :       8419. kBytes
 
  
  
 General timing and accounting informations for this job:
 ========================================================
  
                  Total CPU time used (sec):     1208.845
                            User time (sec):     1207.270
                          System time (sec):        1.576
                         Elapsed time (sec):     1220.041
  
                   Maximum memory used (kb):       98044.
                   Average memory used (kb):          N/A
  
                          Minor page faults:       145500
                          Major page faults:        59127
                 Voluntary context switches:         6146
