<?xml version="1.0" encoding="ISO-8859-1"?>
<modeling>
 <generator>
  <i name="program" type="string">vasp </i>
  <i name="version" type="string">6.2.0  </i>
  <i name="subversion" type="string">18Jan21 (build Feb  1 2022 01:28:57) complex                          parallel </i>
  <i name="platform" type="string">LinuxPGI </i>
  <i name="date" type="string">2022 05 17 </i>
  <i name="time" type="string">23:02:18 </i>
 </generator>
 <incar>
  <i type="string" name="PREC">Normal</i>
  <i type="string" name="ALGO">38</i>
  <i type="int" name="ISPIN">     1</i>
  <i name="AMIX">      0.20000000</i>
  <i name="BMIX">      0.00100000</i>
  <i name="AMIN">      0.01000000</i>
  <i type="int" name="NELM">    60</i>
  <i type="int" name="NELMIN">     4</i>
  <i type="int" name="IBRION">     2</i>
  <i name="EDIFF">      0.00010000</i>
  <i name="EDIFFG">      0.00100000</i>
  <i type="int" name="NSW">   300</i>
  <i type="int" name="ISIF">     0</i>
  <i type="int" name="ISYM">     0</i>
  <i name="SYMPREC">      0.00001000</i>
  <i name="ENCUT">    420.00000000</i>
  <i type="logical" name="LREAL"> T  </i>
  <i type="int" name="ISMEAR">     0</i>
  <i name="SIGMA">      0.05000000</i>
  <i type="logical" name="LWAVE"> F  </i>
  <i type="logical" name="LVTOT"> F  </i>
  <i type="int" name="LORBIT">    11</i>
  <i type="logical" name="LASPH"> F  </i>
  <i type="string" name="GGA">RP</i>
 </incar>
 <primitive_cell>
  <structure name="primitive_cell" >
   <crystal>
    <varray name="basis" >
     <v>       5.63307200       0.00000000       0.21554300 </v>
     <v>       2.81241200       4.88076200       0.21554300 </v>
     <v>       0.00000000       0.00000000      36.85793800 </v>
    </varray>
    <i name="volume">   1013.36049145 </i>
    <varray name="rec_basis" >
     <v>       0.17752303      -0.10229302       0.00000000 </v>
     <v>       0.00000000       0.20488604       0.00000000 </v>
     <v>      -0.00103814      -0.00059996       0.02713120 </v>
    </varray>
   </crystal>
   <varray name="positions" >
    <v>       0.01562500       0.14062500       0.40625000 </v>
    <v>       0.01562500       0.64062500       0.40625000 </v>
    <v>       0.51562500       0.14062500       0.40625000 </v>
    <v>       0.51562500       0.64062500       0.40625000 </v>
    <v>       0.17187500       0.29687500       0.46875000 </v>
    <v>       0.17187500       0.79687500       0.46875000 </v>
    <v>       0.67187500       0.29687500       0.46875000 </v>
    <v>       0.67187500       0.79687500       0.46875000 </v>
    <v>       0.34279200       0.40917300       0.53212600 </v>
    <v>       0.34280300       0.90913800       0.53213200 </v>
    <v>       0.84276600       0.40926100       0.53214000 </v>
    <v>       0.84287500       0.90923400       0.53213200 </v>
    <v>       0.51315900       0.01054900       0.59867100 </v>
    <v>       0.51312600       0.51050900       0.59868400 </v>
    <v>       0.01312100       0.01049300       0.59868600 </v>
    <v>       0.01311400       0.51052300       0.59868100 </v>
    <v>       0.75408800       0.00146800       0.65299400 </v>
    <v>       0.74888100       0.99626100       0.68423400 </v>
   </varray>
  </structure>
  <varray name="primitive_index" >
   <v type="int" >        1 </v>
   <v type="int" >        2 </v>
   <v type="int" >        3 </v>
   <v type="int" >        4 </v>
   <v type="int" >        5 </v>
   <v type="int" >        6 </v>
   <v type="int" >        7 </v>
   <v type="int" >        8 </v>
   <v type="int" >        9 </v>
   <v type="int" >       10 </v>
   <v type="int" >       11 </v>
   <v type="int" >       12 </v>
   <v type="int" >       13 </v>
   <v type="int" >       14 </v>
   <v type="int" >       15 </v>
   <v type="int" >       16 </v>
   <v type="int" >       17 </v>
   <v type="int" >       18 </v>
  </varray>
 </primitive_cell>
 <kpoints>
  <generation param="Gamma">
   <v type="int" name="divisions">       2        2        1 </v>
   <v name="usershift">      0.00000000       0.00000000       0.00000000 </v>
   <v name="genvec1">      0.50000000       0.00000000       0.00000000 </v>
   <v name="genvec2">      0.00000000       0.50000000       0.00000000 </v>
   <v name="genvec3">      0.00000000       0.00000000       1.00000000 </v>
   <v name="shift">      0.00000000       0.00000000       0.00000000 </v>
  </generation>
  <varray name="kpointlist" >
   <v>       0.00000000       0.00000000       0.00000000 </v>
   <v>       0.50000000       0.00000000       0.00000000 </v>
   <v>       0.00000000       0.50000000       0.00000000 </v>
   <v>       0.50000000       0.50000000       0.00000000 </v>
  </varray>
  <varray name="weights" >
   <v>       0.25000000 </v>
   <v>       0.25000000 </v>
   <v>       0.25000000 </v>
   <v>       0.25000000 </v>
  </varray>
 </kpoints>
 <parameters>
  <separator name="general" >
   <i type="string" name="SYSTEM">unknown system</i>
   <i type="logical" name="LCOMPAT"> F  </i>
  </separator>
  <separator name="electronic" >
   <i type="string" name="PREC">normal</i>
   <i name="ENMAX">    420.00000000</i>
   <i name="ENAUG">    644.87300000</i>
   <i name="EDIFF">      0.00010000</i>
   <i type="int" name="IALGO">    38</i>
   <i type="int" name="IWAVPR">    11</i>
   <i type="int" name="NBANDS">   104</i>
   <i type="int" name="NBANDSLOW">    -1</i>
   <i type="int" name="NBANDSHIGH">    -1</i>
   <i name="NELECT">    170.00000000</i>
   <i type="int" name="TURBO">     0</i>
   <i type="int" name="IRESTART">     0</i>
   <i type="int" name="NREBOOT">     0</i>
   <i type="int" name="NMIN">     0</i>
   <i name="EREF">      0.00000000</i>
   <separator name="electronic smearing" >
    <i type="int" name="ISMEAR">     0</i>
    <i name="SIGMA">      0.05000000</i>
    <i name="KSPACING">      0.50000000</i>
    <i type="logical" name="KGAMMA"> T  </i>
    <i type="logical" name="KBLOWUP"> T  </i>
   </separator>
   <separator name="electronic projectors" >
    <i type="logical" name="LREAL"> T  </i>
    <v name="ROPT">      0.00000000      0.00000000      0.00000000</v>
    <i type="int" name="LMAXPAW">  -100</i>
    <i type="int" name="LMAXMIX">     2</i>
    <i type="logical" name="NLSPLINE"> F  </i>
   </separator>
   <separator name="electronic startup" >
    <i type="int" name="ISTART">     0</i>
    <i type="int" name="ICHARG">     2</i>
    <i type="int" name="INIWAV">     1</i>
   </separator>
   <separator name="electronic spin" >
    <i type="int" name="ISPIN">     1</i>
    <i type="logical" name="LNONCOLLINEAR"> F  </i>
    <v name="MAGMOM">      1.00000000      1.00000000      1.00000000      1.00000000      1.00000000      1.00000000      1.00000000      1.00000000      1.00000000      1.00000000      1.00000000      1.00000000      1.00000000      1.00000000      1.00000000      1.00000000      1.00000000      1.00000000</v>
    <i name="NUPDOWN">     -1.00000000</i>
    <i type="logical" name="LSORBIT"> F  </i>
    <v name="SAXIS">      0.00000000      0.00000000      1.00000000</v>
    <i type="logical" name="LSPIRAL"> F  </i>
    <v name="QSPIRAL">      0.00000000      0.00000000      0.00000000</v>
    <i type="logical" name="LZEROZ"> F  </i>
   </separator>
   <separator name="electronic exchange-correlation" >
    <i type="logical" name="LASPH"> F  </i>
    <i type="logical" name="LMETAGGA"> F  </i>
   </separator>
   <separator name="electronic convergence" >
    <i type="int" name="NELM">    60</i>
    <i type="int" name="NELMDL">    -5</i>
    <i type="int" name="NELMIN">     4</i>
    <i name="ENINI">    420.00000000</i>
    <separator name="electronic convergence detail" >
     <i type="logical" name="LDIAG"> T  </i>
     <i type="logical" name="LSUBROT"> F  </i>
     <i name="WEIMIN">      0.00100000</i>
     <i name="EBREAK">      0.00000024</i>
     <i name="DEPER">      0.30000000</i>
     <i type="int" name="NRMM">     4</i>
     <i name="TIME">      0.40000000</i>
    </separator>
   </separator>
   <separator name="electronic mixer" >
    <i name="AMIX">      0.20000000</i>
    <i name="BMIX">      0.00100000</i>
    <i name="AMIN">      0.01000000</i>
    <i name="AMIX_MAG">      0.80000000</i>
    <i name="BMIX_MAG">      0.00100000</i>
    <separator name="electronic mixer details" >
     <i type="int" name="IMIX">     4</i>
     <i type="logical" name="MIXFIRST"> F  </i>
     <i type="int" name="MAXMIX">   -45</i>
     <i name="WC">    100.00000000</i>
     <i type="int" name="INIMIX">     1</i>
     <i type="int" name="MIXPRE">     1</i>
     <i type="int" name="MREMOVE">     5</i>
    </separator>
   </separator>
   <separator name="electronic dipolcorrection" >
    <i type="logical" name="LDIPOL"> F  </i>
    <i type="logical" name="LMONO"> F  </i>
    <i type="int" name="IDIPOL">     0</i>
    <i name="EPSILON">      1.00000000</i>
    <v name="DIPOL">   -100.00000000   -100.00000000   -100.00000000</v>
    <i name="EFIELD">      0.00000000</i>
   </separator>
  </separator>
  <separator name="grids" >
   <i type="int" name="NGX">    28</i>
   <i type="int" name="NGY">    28</i>
   <i type="int" name="NGZ">   192</i>
   <i type="int" name="NGXF">    56</i>
   <i type="int" name="NGYF">    56</i>
   <i type="int" name="NGZF">   384</i>
   <i type="logical" name="ADDGRID"> F  </i>
  </separator>
  <separator name="ionic" >
   <i type="int" name="NSW">   300</i>
   <i type="int" name="IBRION">     2</i>
   <i type="int" name="MDALGO">     0</i>
   <i type="int" name="ISIF">     0</i>
   <i name="PSTRESS">      0.00000000</i>
   <i name="EDIFFG">      0.00100000</i>
   <i type="int" name="NFREE">     1</i>
   <i name="POTIM">      0.50000000</i>
   <i name="SMASS">     -3.00000000</i>
   <i name="SCALEE">      1.00000000</i>
  </separator>
  <separator name="ionic md" >
   <i name="TEBEG">      0.00010000</i>
   <i name="TEEND">      0.00010000</i>
   <i type="int" name="NBLOCK">     1</i>
   <i type="int" name="KBLOCK">   300</i>
   <i type="int" name="NPACO">   256</i>
   <i name="APACO">     16.00000000</i>
  </separator>
  <separator name="symmetry" >
   <i type="int" name="ISYM">     0</i>
   <i name="SYMPREC">      0.00001000</i>
  </separator>
  <separator name="dos" >
   <i type="int" name="LORBIT">    11</i>
   <v name="RWIGS">     -1.00000000     -1.00000000     -1.00000000</v>
   <i type="int" name="NEDOS">   301</i>
   <i name="EMIN">     10.00000000</i>
   <i name="EMAX">    -10.00000000</i>
   <i name="EFERMI">      0.00000000</i>
  </separator>
  <separator name="writing" >
   <i type="int" name="NWRITE">     2</i>
   <i type="logical" name="LWAVE"> F  </i>
   <i type="logical" name="LDOWNSAMPLE"> F  </i>
   <i type="logical" name="LCHARG"> T  </i>
   <i type="logical" name="LPARD"> F  </i>
   <i type="logical" name="LVTOT"> F  </i>
   <i type="logical" name="LVHAR"> F  </i>
   <i type="logical" name="LELF"> F  </i>
   <i type="logical" name="LOPTICS"> F  </i>
   <v name="STM">      0.00000000      0.00000000      0.00000000      0.00000000      0.00000000      0.00000000      0.00000000</v>
  </separator>
  <separator name="performance" >
   <i type="int" name="NPAR">     4</i>
   <i type="int" name="NSIM">     4</i>
   <i type="int" name="NBLK">    -1</i>
   <i type="logical" name="LPLANE"> T  </i>
   <i type="logical" name="LSCALAPACK"> T  </i>
   <i type="logical" name="LSCAAWARE"> F  </i>
   <i type="logical" name="LSCALU"> F  </i>
   <i type="logical" name="LASYNC"> F  </i>
   <i type="logical" name="LORBITALREAL"> F  </i>
  </separator>
  <separator name="miscellaneous" >
   <i type="int" name="IDIOT">     3</i>
   <i type="int" name="PHON_NSTRUCT">    -1</i>
   <i type="logical" name="LMUSIC"> F  </i>
   <v name="POMASS">    195.08000000     12.01100000     16.00000000</v>
   <v name="DARWINR">      0.00000000      0.00000000      0.00000000</v>
   <v name="DARWINV">      1.00000000      1.00000000      1.00000000</v>
   <i type="logical" name="LCORR"> T  </i>
  </separator>
  <i type="logical" name="GGA_COMPAT"> T  </i>
  <i type="logical" name="LBERRY"> F  </i>
  <i type="int" name="ICORELEVEL">     0</i>
  <i type="logical" name="LDAU"> F  </i>
  <i type="int" name="I_CONSTRAINED_M">     0</i>
  <separator name="electronic exchange-correlation" >
   <i type="string" name="GGA">RP</i>
   <i type="int" name="VOSKOWN">     0</i>
   <i type="logical" name="LHFCALC"> F  </i>
   <i type="string" name="PRECFOCK"></i>
   <i type="logical" name="LSYMGRAD"> F  </i>
   <i type="logical" name="LHFONE"> F  </i>
   <i type="logical" name="LRHFCALC"> F  </i>
   <i type="logical" name="LTHOMAS"> F  </i>
   <i type="logical" name="LMODELHF"> F  </i>
   <i type="logical" name="LFOCKACE"> F  </i>
   <i name="ENCUT4O">     -1.00000000</i>
   <i type="int" name="EXXOEP">     0</i>
   <i type="int" name="FOURORBIT">     0</i>
   <i name="AEXX">      0.00000000</i>
   <i name="HFALPHA">      0.00000000</i>
   <i name="MCALPHA">      0.00000000</i>
   <i name="ALDAX">      1.00000000</i>
   <i name="AGGAX">      1.00000000</i>
   <i name="ALDAC">      1.00000000</i>
   <i name="AGGAC">      1.00000000</i>
   <i type="int" name="NKREDX">     1</i>
   <i type="int" name="NKREDY">     1</i>
   <i type="int" name="NKREDZ">     1</i>
   <i type="logical" name="SHIFTRED"> F  </i>
   <i type="logical" name="ODDONLY"> F  </i>
   <i type="logical" name="EVENONLY"> F  </i>
   <i type="int" name="LMAXFOCK">     0</i>
   <i type="int" name="NMAXFOCKAE">     0</i>
   <i type="logical" name="LFOCKAEDFT"> F  </i>
   <i name="HFSCREEN">      0.00000000</i>
   <i name="HFSCREENC">      0.00000000</i>
   <i type="int" name="NBANDSGWLOW">     0</i>
  </separator>
  <separator name="vdW DFT" >
   <i type="logical" name="LUSE_VDW"> F  </i>
   <i name="Zab_VDW">     -0.84910000</i>
   <i name="PARAM1">      0.12340000</i>
   <i name="PARAM2">      1.00000000</i>
   <i name="PARAM3">      0.00000000</i>
  </separator>
  <separator name="model GW" >
   <i type="int" name="MODEL_GW">     0</i>
   <i name="MODEL_EPS0">     33.77868305</i>
   <i name="MODEL_ALPHA">      1.00000000</i>
  </separator>
  <separator name="linear response parameters" >
   <i type="logical" name="LEPSILON"> F  </i>
   <i type="logical" name="LRPA"> F  </i>
   <i type="logical" name="LNABLA"> F  </i>
   <i type="logical" name="LVEL"> F  </i>
   <i type="int" name="KINTER">     0</i>
   <i name="CSHIFT">      0.10000000</i>
   <i name="OMEGAMAX">     -1.00000000</i>
   <i name="DEG_THRESHOLD">      0.00200000</i>
   <i name="RTIME">     -0.10000000</i>
   <i name="WPLASMAI">      0.00000000</i>
   <v name="DFIELD">      0.00000000      0.00000000      0.00000000</v>
   <v name="WPLASMA">      0.00000000      0.00000000      0.00000000      0.00000000      0.00000000      0.00000000      0.00000000      0.00000000      0.00000000</v>
  </separator>
  <separator name="orbital magnetization" >
   <i type="logical" name="NUCIND"> F  </i>
   <v name="MAGPOS">      0.00000000      0.00000000      0.00000000</v>
   <i type="logical" name="LNICSALL"> T  </i>
   <i type="logical" name="ORBITALMAG"> F  </i>
   <i type="logical" name="LMAGBLOCH"> F  </i>
   <i type="logical" name="LCHIMAG"> F  </i>
   <i type="logical" name="LGAUGE"> T  </i>
   <i type="int" name="MAGATOM">     0</i>
   <v name="MAGDIPOL">      0.00000000      0.00000000      0.00000000</v>
   <v name="AVECCONST">      0.00000000      0.00000000      0.00000000</v>
  </separator>
  <separator name="response functions" >
   <i type="logical" name="LFINITE_TEMPERATURE"> F  </i>
   <i type="logical" name="LADDER"> F  </i>
   <i type="logical" name="LRPAFORCE"> F  </i>
   <i type="logical" name="LFXC"> F  </i>
   <i type="logical" name="LHARTREE"> T  </i>
   <i type="int" name="IBSE">     0</i>
   <v type="int" name="KPOINT">    -1     0     0     0</v>
   <i type="logical" name="LTCTC"> F  </i>
   <i type="logical" name="LTCTE"> F  </i>
   <i type="logical" name="LTETE"> F  </i>
   <i type="logical" name="LTRIPLET"> F  </i>
   <i type="logical" name="LFXCEPS"> F  </i>
   <i type="logical" name="LFXHEG"> F  </i>
   <i type="int" name="NATURALO">     2</i>
   <i type="logical" name="LHOLEGF"> F  </i>
   <i type="logical" name="L2ORDER"> F  </i>
   <i type="logical" name="LDMP1"> F  </i>
   <i type="logical" name="LMP2LT"> F  </i>
   <i type="logical" name="LSMP2LT"> F  </i>
   <i type="logical" name="LGWLF"> F  </i>
   <i name="ENCUTGW">     -2.00000000</i>
   <i name="ENCUTGWSOFT">     -2.00000000</i>
   <i name="ENCUTLF">     -1.00000000</i>
   <i type="logical" name="LESF_SPLINES"> F  </i>
   <i type="int" name="LMAXMP2">    -1</i>
   <i name="SCISSOR">      0.00000000</i>
   <i type="int" name="NOMEGA">     0</i>
   <i type="int" name="NOMEGAR">     0</i>
   <i type="int" name="NBANDSGW">    -1</i>
   <i type="int" name="NBANDSO">    -1</i>
   <i type="int" name="NBANDSV">    -1</i>
   <i type="int" name="NELM">    60</i>
   <i type="int" name="NELMHF">     1</i>
   <i type="int" name="DIM">     3</i>
   <i type="int" name="IESPILON">     4</i>
   <i type="int" name="ANTIRES">     0</i>
   <i name="OMEGAMAX">    -30.00000000</i>
   <i name="OMEGAMIN">    -30.00000000</i>
   <i name="OMEGATL">   -200.00000000</i>
   <i type="int" name="OMEGAGRID">     0</i>
   <i name="CSHIFT">     -0.10000000</i>
   <i type="logical" name="LSELFENERGY"> F  </i>
   <i type="logical" name="LSPECTRAL"> F  </i>
   <i type="logical" name="LSPECTRALGW"> F  </i>
   <i type="logical" name="LSINGLES"> F  </i>
   <i type="logical" name="LFERMIGW"> F  </i>
   <i type="logical" name="ODDONLYGW"> F  </i>
   <i type="logical" name="EVENONLYGW"> F  </i>
   <i type="int" name="NKREDLFX">     1</i>
   <i type="int" name="NKREDLFY">     1</i>
   <i type="int" name="NKREDLFZ">     1</i>
   <i type="int" name="MAXMEM">  2800</i>
   <i type="int" name="TELESCOPE">     0</i>
   <i type="int" name="NTAUPAR">    -1</i>
   <i type="int" name="NOMEGAPAR">    -1</i>
   <i name="DAMP_NEWTON">      0.80000001</i>
   <i name="LAMBDA">      1.00000000</i>
  </separator>
  <separator name="External order field" >
   <i name="OFIELD_KAPPA">      0.00000000</i>
   <v name="OFIELD_K">      0.00000000      0.00000000      0.00000000</v>
   <i name="OFIELD_Q6_NEAR">      0.00000000</i>
   <i name="OFIELD_Q6_FAR">      0.00000000</i>
   <i name="OFIELD_A">      0.00000000</i>
  </separator>
 </parameters>
 <atominfo>
  <atoms>      18 </atoms>
  <types>       3 </types>
  <array name="atoms" >
   <dimension dim="1">ion</dimension>
   <field type="string">element</field>
   <field type="int">atomtype</field>
   <set>
    <rc><c>Pt</c><c>   1</c></rc>
    <rc><c>Pt</c><c>   1</c></rc>
    <rc><c>Pt</c><c>   1</c></rc>
    <rc><c>Pt</c><c>   1</c></rc>
    <rc><c>Pt</c><c>   1</c></rc>
    <rc><c>Pt</c><c>   1</c></rc>
    <rc><c>Pt</c><c>   1</c></rc>
    <rc><c>Pt</c><c>   1</c></rc>
    <rc><c>Pt</c><c>   1</c></rc>
    <rc><c>Pt</c><c>   1</c></rc>
    <rc><c>Pt</c><c>   1</c></rc>
    <rc><c>Pt</c><c>   1</c></rc>
    <rc><c>Pt</c><c>   1</c></rc>
    <rc><c>Pt</c><c>   1</c></rc>
    <rc><c>Pt</c><c>   1</c></rc>
    <rc><c>Pt</c><c>   1</c></rc>
    <rc><c>C </c><c>   2</c></rc>
    <rc><c>O </c><c>   3</c></rc>
   </set>
  </array>
  <array name="atomtypes" >
   <dimension dim="1">type</dimension>
   <field type="int">atomspertype</field>
   <field type="string">element</field>
   <field>mass</field>
   <field>valence</field>
   <field type="string">pseudopotential</field>
   <set>
    <rc><c>  16</c><c>Pt</c><c>    195.08000000</c><c>     10.00000000</c><c>  PAW_PBE Pt 04Feb2005                  </c></rc>
    <rc><c>   1</c><c>C </c><c>     12.01100000</c><c>      4.00000000</c><c>  PAW_PBE C 08Apr2002                   </c></rc>
    <rc><c>   1</c><c>O </c><c>     16.00000000</c><c>      6.00000000</c><c>  PAW_PBE O 08Apr2002                   </c></rc>
   </set>
  </array>
 </atominfo>
 <structure name="initialpos" >
  <crystal>
   <varray name="basis" >
    <v>       5.63307200       0.00000000       0.21554300 </v>
    <v>       2.81241200       4.88076200       0.21554300 </v>
    <v>       0.00000000       0.00000000      36.85793800 </v>
   </varray>
   <i name="volume">   1013.36049145 </i>
   <varray name="rec_basis" >
    <v>       0.17752303      -0.10229302       0.00000000 </v>
    <v>       0.00000000       0.20488604       0.00000000 </v>
    <v>      -0.00103814      -0.00059996       0.02713120 </v>
   </varray>
  </crystal>
  <varray name="positions" >
   <v>       0.01562500       0.14062500       0.40625000 </v>
   <v>       0.01562500       0.64062500       0.40625000 </v>
   <v>       0.51562500       0.14062500       0.40625000 </v>
   <v>       0.51562500       0.64062500       0.40625000 </v>
   <v>       0.17187500       0.29687500       0.46875000 </v>
   <v>       0.17187500       0.79687500       0.46875000 </v>
   <v>       0.67187500       0.29687500       0.46875000 </v>
   <v>       0.67187500       0.79687500       0.46875000 </v>
   <v>       0.34279200       0.40917300       0.53212600 </v>
   <v>       0.34280300       0.90913800       0.53213200 </v>
   <v>       0.84276600       0.40926100       0.53214000 </v>
   <v>       0.84287500       0.90923400       0.53213200 </v>
   <v>       0.51315900       0.01054900       0.59867100 </v>
   <v>       0.51312600       0.51050900       0.59868400 </v>
   <v>       0.01312100       0.01049300       0.59868600 </v>
   <v>       0.01311400       0.51052300       0.59868100 </v>
   <v>       0.75408800       0.00146800       0.65299400 </v>
   <v>       0.74888100       0.99626100       0.68423400 </v>
  </varray>
  <varray name="selective"  type="logical" >
   <v type="logical" >  F  F  F </v>
   <v type="logical" >  F  F  F </v>
   <v type="logical" >  F  F  F </v>
   <v type="logical" >  F  F  F </v>
   <v type="logical" >  F  F  F </v>
   <v type="logical" >  F  F  F </v>
   <v type="logical" >  F  F  F </v>
   <v type="logical" >  F  F  F </v>
   <v type="logical" >  T  T  T </v>
   <v type="logical" >  T  T  T </v>
   <v type="logical" >  T  T  T </v>
   <v type="logical" >  T  T  T </v>
   <v type="logical" >  T  T  T </v>
   <v type="logical" >  T  T  T </v>
   <v type="logical" >  T  T  T </v>
   <v type="logical" >  T  T  T </v>
   <v type="logical" >  T  T  T </v>
   <v type="logical" >  T  T  T </v>
  </varray>
  <nose>
   <v>      -3.00000000       0.00000000       0.00010000       0.00010000 </v>
  </nose>
 </structure>
 <calculation>
  <scstep>
   <time name="dav">    2.47    2.48</time>
   <time name="total">    2.62    2.63</time>
   <energy>
    <i name="alphaZ">    262.47990408 </i>
    <i name="ewald"> 139516.72258219 </i>
    <i name="hartreedc">-151930.37796162 </i>
    <i name="XCdc">     86.56385296 </i>
    <i name="pawpsdc">  11602.90403888 </i>
    <i name="pawaedc"> -11137.02028253 </i>
    <i name="eentropy">     -0.02120025 </i>
    <i name="bandstr">    508.38030282 </i>
    <i name="atom">  12232.59423587 </i>
    <i name="e_fr_energy">   1142.22547240 </i>
    <i name="e_wo_entrp">   1142.24667264 </i>
    <i name="e_0_energy">   1142.23607252 </i>
   </energy>
  </scstep>
  <scstep>
   <time name="dav">    2.95    2.96</time>
   <time name="total">    2.95    2.96</time>
   <energy>
    <i name="e_fr_energy">      1.89758264 </i>
    <i name="e_wo_entrp">      1.90039569 </i>
    <i name="e_0_energy">      1.89898917 </i>
   </energy>
  </scstep>
  <scstep>
   <time name="dav">    2.71    2.72</time>
   <time name="total">    2.71    2.72</time>
   <energy>
    <i name="e_fr_energy">   -102.47205956 </i>
    <i name="e_wo_entrp">   -102.45055628 </i>
    <i name="e_0_energy">   -102.46130792 </i>
   </energy>
  </scstep>
  <scstep>
   <time name="dav">    3.04    3.04</time>
   <time name="total">    3.04    3.04</time>
   <energy>
    <i name="e_fr_energy">   -106.33156885 </i>
    <i name="e_wo_entrp">   -106.30959165 </i>
    <i name="e_0_energy">   -106.32058025 </i>
   </energy>
  </scstep>
  <scstep>
   <time name="dav">    3.02    3.03</time>
   <time name="total">    3.19    3.20</time>
   <energy>
    <i name="e_fr_energy">   -106.43158827 </i>
    <i name="e_wo_entrp">   -106.40964616 </i>
    <i name="e_0_energy">   -106.42061722 </i>
   </energy>
  </scstep>
  <scstep>
   <time name="dav">    2.62    2.64</time>
   <time name="total">    2.93    2.95</time>
   <energy>
    <i name="e_fr_energy">   -109.83658178 </i>
    <i name="e_wo_entrp">   -109.81977409 </i>
    <i name="e_0_energy">   -109.82817794 </i>
   </energy>
  </scstep>
  <scstep>
   <time name="dav">    3.04    3.06</time>
   <time name="total">    3.34    3.37</time>
   <energy>
    <i name="e_fr_energy">   -110.81032930 </i>
    <i name="e_wo_entrp">   -110.80087380 </i>
    <i name="e_0_energy">   -110.80560155 </i>
   </energy>
  </scstep>
  <scstep>
   <time name="dav">    3.42    3.43</time>
   <time name="total">    3.72    3.74</time>
   <energy>
    <i name="e_fr_energy">   -169.94963101 </i>
    <i name="e_wo_entrp">   -169.93161630 </i>
    <i name="e_0_energy">   -169.94062366 </i>
   </energy>
  </scstep>
  <scstep>
   <time name="dav">    2.85    2.85</time>
   <time name="total">    3.14    3.15</time>
   <energy>
    <i name="e_fr_energy">   -143.28607325 </i>
    <i name="e_wo_entrp">   -143.25552836 </i>
    <i name="e_0_energy">   -143.27080080 </i>
   </energy>
  </scstep>
  <scstep>
   <time name="dav">    2.62    2.62</time>
   <time name="total">    2.91    2.92</time>
   <energy>
    <i name="e_fr_energy">   -159.55539851 </i>
    <i name="e_wo_entrp">   -159.53243562 </i>
    <i name="e_0_energy">   -159.54391706 </i>
   </energy>
  </scstep>
  <scstep>
   <time name="dav">    2.82    2.83</time>
   <time name="total">    3.12    3.13</time>
   <energy>
    <i name="e_fr_energy">   -114.73499922 </i>
    <i name="e_wo_entrp">   -114.69911460 </i>
    <i name="e_0_energy">   -114.71705691 </i>
   </energy>
  </scstep>
  <scstep>
   <time name="dav">    2.63    2.64</time>
   <time name="total">    2.93    2.94</time>
   <energy>
    <i name="e_fr_energy">   -112.94094207 </i>
    <i name="e_wo_entrp">   -112.91534360 </i>
    <i name="e_0_energy">   -112.92814284 </i>
   </energy>
  </scstep>
  <scstep>
   <time name="dav">    2.51    2.51</time>
   <time name="total">    2.81    2.81</time>
   <energy>
    <i name="e_fr_energy">   -108.50807062 </i>
    <i name="e_wo_entrp">   -108.46565453 </i>
    <i name="e_0_energy">   -108.48686257 </i>
   </energy>
  </scstep>
  <scstep>
   <time name="dav">    2.62    2.62</time>
   <time name="total">    2.90    2.91</time>
   <energy>
    <i name="e_fr_energy">   -109.93282309 </i>
    <i name="e_wo_entrp">   -109.90020819 </i>
    <i name="e_0_energy">   -109.91651564 </i>
   </energy>
  </scstep>
  <scstep>
   <time name="dav">    2.65    2.65</time>
   <time name="total">    2.95    2.95</time>
   <energy>
    <i name="e_fr_energy">   -104.31270736 </i>
    <i name="e_wo_entrp">   -104.28796259 </i>
    <i name="e_0_energy">   -104.30033498 </i>
   </energy>
  </scstep>
  <scstep>
   <time name="dav">    2.77    2.78</time>
   <time name="total">    3.07    3.07</time>
   <energy>
    <i name="e_fr_energy">   -100.45297362 </i>
    <i name="e_wo_entrp">   -100.42187389 </i>
    <i name="e_0_energy">   -100.43742375 </i>
   </energy>
  </scstep>
  <scstep>
   <time name="dav">    2.54    2.54</time>
   <time name="total">    2.85    2.85</time>
   <energy>
    <i name="e_fr_energy">   -100.42357079 </i>
    <i name="e_wo_entrp">   -100.38436322 </i>
    <i name="e_0_energy">   -100.40396701 </i>
   </energy>
  </scstep>
  <scstep>
   <time name="dav">    3.21    3.22</time>
   <time name="total">    3.51    3.52</time>
   <energy>
    <i name="e_fr_energy">   -100.43711605 </i>
    <i name="e_wo_entrp">   -100.39884358 </i>
    <i name="e_0_energy">   -100.41797982 </i>
   </energy>
  </scstep>
  <scstep>
   <time name="dav">    2.63    2.64</time>
   <time name="total">    2.94    2.94</time>
   <energy>
    <i name="e_fr_energy">   -100.59138140 </i>
    <i name="e_wo_entrp">   -100.54478164 </i>
    <i name="e_0_energy">   -100.56808152 </i>
   </energy>
  </scstep>
  <scstep>
   <time name="dav">    2.62    2.62</time>
   <time name="total">    2.92    2.93</time>
   <energy>
    <i name="e_fr_energy">   -100.69113972 </i>
    <i name="e_wo_entrp">   -100.63454082 </i>
    <i name="e_0_energy">   -100.66284027 </i>
   </energy>
  </scstep>
  <scstep>
   <time name="dav">    2.59    2.59</time>
   <time name="total">    2.90    2.90</time>
   <energy>
    <i name="e_fr_energy">   -100.61285412 </i>
    <i name="e_wo_entrp">   -100.54941877 </i>
    <i name="e_0_energy">   -100.58113645 </i>
   </energy>
  </scstep>
  <scstep>
   <time name="dav">    2.50    2.50</time>
   <time name="total">    2.79    2.80</time>
   <energy>
    <i name="e_fr_energy">   -101.29189653 </i>
    <i name="e_wo_entrp">   -101.24412644 </i>
    <i name="e_0_energy">   -101.26801148 </i>
   </energy>
  </scstep>
  <scstep>
   <time name="dav">    2.51    2.52</time>
   <time name="total">    2.82    2.83</time>
   <energy>
    <i name="e_fr_energy">   -101.08610963 </i>
    <i name="e_wo_entrp">   -101.02742958 </i>
    <i name="e_0_energy">   -101.05676961 </i>
   </energy>
  </scstep>
  <scstep>
   <time name="dav">    2.75    2.75</time>
   <time name="total">    3.05    3.06</time>
   <energy>
    <i name="e_fr_energy">   -100.34761902 </i>
    <i name="e_wo_entrp">   -100.30137758 </i>
    <i name="e_0_energy">   -100.32449830 </i>
   </energy>
  </scstep>
  <scstep>
   <time name="dav">    2.51    2.52</time>
   <time name="total">    2.82    2.83</time>
   <energy>
    <i name="e_fr_energy">   -100.30349978 </i>
    <i name="e_wo_entrp">   -100.26891962 </i>
    <i name="e_0_energy">   -100.28620970 </i>
   </energy>
  </scstep>
  <scstep>
   <time name="dav">    2.61    2.62</time>
   <time name="total">    2.91    2.92</time>
   <energy>
    <i name="e_fr_energy">   -100.26729807 </i>
    <i name="e_wo_entrp">   -100.23260315 </i>
    <i name="e_0_energy">   -100.24995061 </i>
   </energy>
  </scstep>
  <scstep>
   <time name="dav">    2.57    2.58</time>
   <time name="total">    2.89    2.90</time>
   <energy>
    <i name="e_fr_energy">   -100.25302847 </i>
    <i name="e_wo_entrp">   -100.21911257 </i>
    <i name="e_0_energy">   -100.23607052 </i>
   </energy>
  </scstep>
  <scstep>
   <time name="dav">    2.57    2.58</time>
   <time name="total">    2.89    2.89</time>
   <energy>
    <i name="e_fr_energy">   -100.22339642 </i>
    <i name="e_wo_entrp">   -100.18788431 </i>
    <i name="e_0_energy">   -100.20564037 </i>
   </energy>
  </scstep>
  <scstep>
   <time name="dav">    2.64    2.65</time>
   <time name="total">    2.95    2.96</time>
   <energy>
    <i name="e_fr_energy">   -100.22268128 </i>
    <i name="e_wo_entrp">   -100.18756567 </i>
    <i name="e_0_energy">   -100.20512347 </i>
   </energy>
  </scstep>
  <scstep>
   <time name="dav">    2.55    2.56</time>
   <time name="total">    2.86    2.88</time>
   <energy>
    <i name="e_fr_energy">   -100.22390008 </i>
    <i name="e_wo_entrp">   -100.18976960 </i>
    <i name="e_0_energy">   -100.20683484 </i>
   </energy>
  </scstep>
  <scstep>
   <time name="dav">    2.54    2.55</time>
   <time name="total">    2.86    2.86</time>
   <energy>
    <i name="e_fr_energy">   -100.21729315 </i>
    <i name="e_wo_entrp">   -100.17972811 </i>
    <i name="e_0_energy">   -100.19851063 </i>
   </energy>
  </scstep>
  <scstep>
   <time name="dav">    2.64    2.65</time>
   <time name="total">    2.95    2.96</time>
   <energy>
    <i name="e_fr_energy">   -100.24228084 </i>
    <i name="e_wo_entrp">   -100.19770043 </i>
    <i name="e_0_energy">   -100.21999064 </i>
   </energy>
  </scstep>
  <scstep>
   <time name="dav">    2.62    2.63</time>
   <time name="total">    2.93    2.94</time>
   <energy>
    <i name="e_fr_energy">   -100.21365073 </i>
    <i name="e_wo_entrp">   -100.17059713 </i>
    <i name="e_0_energy">   -100.19212393 </i>
   </energy>
  </scstep>
  <scstep>
   <time name="dav">    2.48    2.49</time>
   <time name="total">    2.80    2.81</time>
   <energy>
    <i name="e_fr_energy">   -100.14669755 </i>
    <i name="e_wo_entrp">   -100.10614510 </i>
    <i name="e_0_energy">   -100.12642133 </i>
   </energy>
  </scstep>
  <scstep>
   <time name="dav">    2.63    2.65</time>
   <time name="total">    2.94    2.96</time>
   <energy>
    <i name="e_fr_energy">   -100.12533635 </i>
    <i name="e_wo_entrp">   -100.08423906 </i>
    <i name="e_0_energy">   -100.10478771 </i>
   </energy>
  </scstep>
  <scstep>
   <time name="dav">    2.58    2.59</time>
   <time name="total">    2.89    2.90</time>
   <energy>
    <i name="e_fr_energy">   -100.07855542 </i>
    <i name="e_wo_entrp">   -100.04021417 </i>
    <i name="e_0_energy">   -100.05938480 </i>
   </energy>
  </scstep>
  <scstep>
   <time name="dav">    2.57    2.58</time>
   <time name="total">    2.88    2.95</time>
   <energy>
    <i name="e_fr_energy">   -100.04701503 </i>
    <i name="e_wo_entrp">   -100.01016320 </i>
    <i name="e_0_energy">   -100.02858912 </i>
   </energy>
  </scstep>
  <scstep>
   <time name="dav">    2.48    2.48</time>
   <time name="total">    2.78    2.78</time>
   <energy>
    <i name="e_fr_energy">   -100.04361060 </i>
    <i name="e_wo_entrp">   -100.00682158 </i>
    <i name="e_0_energy">   -100.02521609 </i>
   </energy>
  </scstep>
  <scstep>
   <time name="dav">    2.55    2.56</time>
   <time name="total">    2.86    2.87</time>
   <energy>
    <i name="e_fr_energy">   -100.00449886 </i>
    <i name="e_wo_entrp">    -99.96959494 </i>
    <i name="e_0_energy">    -99.98704690 </i>
   </energy>
  </scstep>
  <scstep>
   <time name="dav">    2.64    2.65</time>
   <time name="total">    2.95    2.96</time>
   <energy>
    <i name="e_fr_energy">    -99.98282486 </i>
    <i name="e_wo_entrp">    -99.94677073 </i>
    <i name="e_0_energy">    -99.96479780 </i>
   </energy>
  </scstep>
  <scstep>
   <time name="dav">    2.61    2.61</time>
   <time name="total">    2.92    2.92</time>
   <energy>
    <i name="e_fr_energy">    -99.97249403 </i>
    <i name="e_wo_entrp">    -99.93450431 </i>
    <i name="e_0_energy">    -99.95349917 </i>
   </energy>
  </scstep>
  <scstep>
   <time name="dav">    2.50    2.52</time>
   <time name="total">    2.80    2.82</time>
   <energy>
    <i name="e_fr_energy">    -99.96746451 </i>
    <i name="e_wo_entrp">    -99.92872388 </i>
    <i name="e_0_energy">    -99.94809420 </i>
   </energy>
  </scstep>
  <scstep>
   <time name="dav">    2.53    2.54</time>
   <time name="total">    2.84    2.85</time>
   <energy>
    <i name="e_fr_energy">    -99.94665667 </i>
    <i name="e_wo_entrp">    -99.90619962 </i>
    <i name="e_0_energy">    -99.92642815 </i>
   </energy>
  </scstep>
  <scstep>
   <time name="dav">    2.60    2.61</time>
   <time name="total">    2.90    2.91</time>
   <energy>
    <i name="e_fr_energy">    -99.92577918 </i>
    <i name="e_wo_entrp">    -99.88328404 </i>
    <i name="e_0_energy">    -99.90453161 </i>
   </energy>
  </scstep>
  <scstep>
   <time name="dav">    2.56    2.57</time>
   <time name="total">    2.87    2.88</time>
   <energy>
    <i name="e_fr_energy">    -99.91343541 </i>
    <i name="e_wo_entrp">    -99.87053184 </i>
    <i name="e_0_energy">    -99.89198362 </i>
   </energy>
  </scstep>
  <scstep>
   <time name="dav">    2.43    2.44</time>
   <time name="total">    2.75    2.75</time>
   <energy>
    <i name="e_fr_energy">    -99.88368394 </i>
    <i name="e_wo_entrp">    -99.83939688 </i>
    <i name="e_0_energy">    -99.86154041 </i>
   </energy>
  </scstep>
  <scstep>
   <time name="dav">    2.66    2.67</time>
   <time name="total">    2.99    2.99</time>
   <energy>
    <i name="e_fr_energy">    -99.86135441 </i>
    <i name="e_wo_entrp">    -99.81626296 </i>
    <i name="e_0_energy">    -99.83880868 </i>
   </energy>
  </scstep>
  <scstep>
   <time name="dav">    2.53    2.54</time>
   <time name="total">    2.85    2.86</time>
   <energy>
    <i name="e_fr_energy">    -99.82992340 </i>
    <i name="e_wo_entrp">    -99.78422818 </i>
    <i name="e_0_energy">    -99.80707579 </i>
   </energy>
  </scstep>
  <scstep>
   <time name="dav">    2.56    2.56</time>
   <time name="total">    2.87    2.88</time>
   <energy>
    <i name="e_fr_energy">    -99.77356483 </i>
    <i name="e_wo_entrp">    -99.72755579 </i>
    <i name="e_0_energy">    -99.75056031 </i>
   </energy>
  </scstep>
  <scstep>
   <time name="dav">    2.71    2.72</time>
   <time name="total">    3.02    3.03</time>
   <energy>
    <i name="e_fr_energy">    -99.75702626 </i>
    <i name="e_wo_entrp">    -99.71111722 </i>
    <i name="e_0_energy">    -99.73407174 </i>
   </energy>
  </scstep>
  <scstep>
   <time name="dav">    2.17    2.18</time>
   <time name="total">    2.45    2.46</time>
   <energy>
    <i name="e_fr_energy">    -99.67357784 </i>
    <i name="e_wo_entrp">    -99.62517949 </i>
    <i name="e_0_energy">    -99.64937866 </i>
   </energy>
  </scstep>
  <scstep>
   <time name="dav">    2.27    2.27</time>
   <time name="total">    2.59    2.59</time>
   <energy>
    <i name="e_fr_energy">    -99.67485959 </i>
    <i name="e_wo_entrp">    -99.62790937 </i>
    <i name="e_0_energy">    -99.65138448 </i>
   </energy>
  </scstep>
  <scstep>
   <time name="dav">    2.68    2.68</time>
   <time name="total">    2.98    2.99</time>
   <energy>
    <i name="e_fr_energy">    -99.67307067 </i>
    <i name="e_wo_entrp">    -99.62558274 </i>
    <i name="e_0_energy">    -99.64932670 </i>
   </energy>
  </scstep>
  <scstep>
   <time name="dav">    2.55    2.55</time>
   <time name="total">    2.87    2.88</time>
   <energy>
    <i name="e_fr_energy">    -99.67265917 </i>
    <i name="e_wo_entrp">    -99.62450697 </i>
    <i name="e_0_energy">    -99.64858307 </i>
   </energy>
  </scstep>
  <scstep>
   <time name="dav">    2.74    2.74</time>
   <time name="total">    3.08    3.08</time>
   <energy>
    <i name="e_fr_energy">    -99.67312680 </i>
    <i name="e_wo_entrp">    -99.62375838 </i>
    <i name="e_0_energy">    -99.64844259 </i>
   </energy>
  </scstep>
  <scstep>
   <time name="dav">    2.71    2.71</time>
   <time name="total">    3.03    3.04</time>
   <energy>
    <i name="e_fr_energy">    -99.67239123 </i>
    <i name="e_wo_entrp">    -99.62422054 </i>
    <i name="e_0_energy">    -99.64830588 </i>
   </energy>
  </scstep>
  <scstep>
   <time name="dav">    2.62    2.62</time>
   <time name="total">    2.91    2.92</time>
   <energy>
    <i name="e_fr_energy">    -99.67123416 </i>
    <i name="e_wo_entrp">    -99.62292789 </i>
    <i name="e_0_energy">    -99.64708103 </i>
   </energy>
  </scstep>
  <scstep>
   <time name="dav">    1.72    1.73</time>
   <time name="total">    2.01    2.02</time>
   <energy>
    <i name="e_fr_energy">    -99.67108388 </i>
    <i name="e_wo_entrp">    -99.62307567 </i>
    <i name="e_0_energy">    -99.64707978 </i>
   </energy>
  </scstep>
  <scstep>
   <time name="dav">    1.68    1.69</time>
   <time name="total">    1.96    1.97</time>
   <energy>
    <i name="e_fr_energy">    -99.67044094 </i>
    <i name="e_wo_entrp">    -99.62254264 </i>
    <i name="e_0_energy">    -99.64649179 </i>
   </energy>
  </scstep>
  <scstep>
   <time name="dav">    1.51    1.52</time>
   <time name="total">    1.64    1.65</time>
   <energy>
    <i name="alphaZ">    262.47990408 </i>
    <i name="ewald"> 139516.72258219 </i>
    <i name="hartreedc">-151809.66423596 </i>
    <i name="XCdc">     83.09759563 </i>
    <i name="pawpsdc">  14703.35209073 </i>
    <i name="pawaedc"> -14275.20548714 </i>
    <i name="eentropy">     -0.04810798 </i>
    <i name="bandstr">   -812.99837566 </i>
    <i name="atom">  12232.59423587 </i>
    <i name="e_fr_energy">    -99.66979823 </i>
    <i name="e_wo_entrp">    -99.62169026 </i>
    <i name="e_0_energy">    -99.64574425 </i>
   </energy>
  </scstep>
  <structure>
   <crystal>
    <varray name="basis" >
     <v>       5.63307200       0.00000000       0.21554300 </v>
     <v>       2.81241200       4.88076200       0.21554300 </v>
     <v>       0.00000000       0.00000000      36.85793800 </v>
    </varray>
    <i name="volume">   1013.36049145 </i>
    <varray name="rec_basis" >
     <v>       0.17752303      -0.10229302       0.00000000 </v>
     <v>       0.00000000       0.20488604       0.00000000 </v>
     <v>      -0.00103814      -0.00059996       0.02713120 </v>
    </varray>
   </crystal>
   <varray name="positions" >
    <v>       0.01562500       0.14062500       0.40625000 </v>
    <v>       0.01562500       0.64062500       0.40625000 </v>
    <v>       0.51562500       0.14062500       0.40625000 </v>
    <v>       0.51562500       0.64062500       0.40625000 </v>
    <v>       0.17187500       0.29687500       0.46875000 </v>
    <v>       0.17187500       0.79687500       0.46875000 </v>
    <v>       0.67187500       0.29687500       0.46875000 </v>
    <v>       0.67187500       0.79687500       0.46875000 </v>
    <v>       0.34279200       0.40917300       0.53212600 </v>
    <v>       0.34280300       0.90913800       0.53213200 </v>
    <v>       0.84276600       0.40926100       0.53214000 </v>
    <v>       0.84287500       0.90923400       0.53213200 </v>
    <v>       0.51315900       0.01054900       0.59867100 </v>
    <v>       0.51312600       0.51050900       0.59868400 </v>
    <v>       0.01312100       0.01049300       0.59868600 </v>
    <v>       0.01311400       0.51052300       0.59868100 </v>
    <v>       0.75408800       0.00146800       0.65299400 </v>
    <v>       0.74888100       0.99626100       0.68423400 </v>
   </varray>
  </structure>
  <varray name="forces" >
   <v>       0.18071679      -0.06738460      -0.31066223 </v>
   <v>       0.14693501       0.01991834      -0.52178625 </v>
   <v>       0.14117937      -0.07144618      -0.30898714 </v>
   <v>       0.14973542       0.04169178      -0.19758630 </v>
   <v>      -0.01557258       0.21844534       0.74442342 </v>
   <v>       0.00197373       0.07197031       0.67916909 </v>
   <v>      -0.01011133       0.12011824       0.87878643 </v>
   <v>      -0.02823142       0.08117176       0.69292435 </v>
   <v>      -0.01917392       0.08668767       0.25633364 </v>
   <v>       0.01890111       0.09550501       0.84215393 </v>
   <v>       0.11835487       0.05555575       0.25544868 </v>
   <v>       0.07863636      -0.02382066       0.05773612 </v>
   <v>       0.46548805       0.05944218       1.34727514 </v>
   <v>       0.08962646       0.19515652       0.26950411 </v>
   <v>      -0.28422424       0.10330503       1.32059607 </v>
   <v>       0.07878107       0.00626465       0.26132477 </v>
   <v>       1.06930232       0.19200524      -2.27469029 </v>
   <v>      -2.18231707      -1.18458638      -3.99196353 </v>
  </varray>
  <energy>
   <i name="e_fr_energy">    -99.66979823 </i>
   <i name="e_wo_entrp">    -99.62169026 </i>
   <i name="e_0_energy">    -99.64574425 </i>
  </energy>
  <time name="totalsc">  174.91  175.57</time>
 </calculation>
 <calculation>
  <scstep>
   <time name="dav">    2.05    2.05</time>
   <time name="total">    2.31    2.31</time>
   <energy>
    <i name="alphaZ">    262.47990408 </i>
    <i name="ewald"> 139627.12069029 </i>
    <i name="hartreedc">-151911.20595938 </i>
    <i name="XCdc">     83.48182096 </i>
    <i name="pawpsdc">  14688.46106654 </i>
    <i name="pawaedc"> -14260.29684952 </i>
    <i name="eentropy">     -0.04732566 </i>
    <i name="bandstr">   -821.66552029 </i>
    <i name="atom">  12232.59423587 </i>
    <i name="e_fr_energy">    -99.07793710 </i>
    <i name="e_wo_entrp">    -99.03061145 </i>
    <i name="e_0_energy">    -99.05427428 </i>
   </energy>
  </scstep>
  <scstep>
   <time name="dav">    2.16    2.17</time>
   <time name="total">    2.44    2.45</time>
   <energy>
    <i name="e_fr_energy">    -99.84261206 </i>
    <i name="e_wo_entrp">    -99.79842257 </i>
    <i name="e_0_energy">    -99.82051732 </i>
   </energy>
  </scstep>
  <scstep>
   <time name="dav">    2.56    2.57</time>
   <time name="total">    2.82    2.83</time>
   <energy>
    <i name="e_fr_energy">   -101.50122360 </i>
    <i name="e_wo_entrp">   -101.46871308 </i>
    <i name="e_0_energy">   -101.48496834 </i>
   </energy>
  </scstep>
  <scstep>
   <time name="dav">    2.60    2.61</time>
   <time name="total">    2.86    2.87</time>
   <energy>
    <i name="e_fr_energy">    -99.91461015 </i>
    <i name="e_wo_entrp">    -99.86176936 </i>
    <i name="e_0_energy">    -99.88818975 </i>
   </energy>
  </scstep>
  <scstep>
   <time name="dav">    2.09    2.09</time>
   <time name="total">    2.34    2.35</time>
   <energy>
    <i name="e_fr_energy">    -99.82001359 </i>
    <i name="e_wo_entrp">    -99.77101398 </i>
    <i name="e_0_energy">    -99.79551378 </i>
   </energy>
  </scstep>
  <scstep>
   <time name="dav">    2.30    2.30</time>
   <time name="total">    2.56    2.57</time>
   <energy>
    <i name="e_fr_energy">    -99.83763350 </i>
    <i name="e_wo_entrp">    -99.77798911 </i>
    <i name="e_0_energy">    -99.80781131 </i>
   </energy>
  </scstep>
  <scstep>
   <time name="dav">    2.58    2.59</time>
   <time name="total">    2.88    2.89</time>
   <energy>
    <i name="e_fr_energy">    -99.78904974 </i>
    <i name="e_wo_entrp">    -99.74542843 </i>
    <i name="e_0_energy">    -99.76723909 </i>
   </energy>
  </scstep>
  <scstep>
   <time name="dav">    2.43    2.44</time>
   <time name="total">    2.73    2.74</time>
   <energy>
    <i name="e_fr_energy">    -99.76632500 </i>
    <i name="e_wo_entrp">    -99.71854989 </i>
    <i name="e_0_energy">    -99.74243745 </i>
   </energy>
  </scstep>
  <scstep>
   <time name="dav">    2.46    2.47</time>
   <time name="total">    2.77    2.78</time>
   <energy>
    <i name="e_fr_energy">    -99.76425934 </i>
    <i name="e_wo_entrp">    -99.71597256 </i>
    <i name="e_0_energy">    -99.74011595 </i>
   </energy>
  </scstep>
  <scstep>
   <time name="dav">    2.54    2.55</time>
   <time name="total">    2.84    2.85</time>
   <energy>
    <i name="e_fr_energy">    -99.75539176 </i>
    <i name="e_wo_entrp">    -99.70725030 </i>
    <i name="e_0_energy">    -99.73132103 </i>
   </energy>
  </scstep>
  <scstep>
   <time name="dav">    2.66    2.67</time>
   <time name="total">    2.97    2.97</time>
   <energy>
    <i name="e_fr_energy">    -99.75433236 </i>
    <i name="e_wo_entrp">    -99.70775397 </i>
    <i name="e_0_energy">    -99.73104316 </i>
   </energy>
  </scstep>
  <scstep>
   <time name="dav">    2.54    2.55</time>
   <time name="total">    2.84    2.85</time>
   <energy>
    <i name="e_fr_energy">    -99.75226506 </i>
    <i name="e_wo_entrp">    -99.70513555 </i>
    <i name="e_0_energy">    -99.72870030 </i>
   </energy>
  </scstep>
  <scstep>
   <time name="dav">    2.60    2.61</time>
   <time name="total">    2.91    2.91</time>
   <energy>
    <i name="e_fr_energy">    -99.75186159 </i>
    <i name="e_wo_entrp">    -99.70471876 </i>
    <i name="e_0_energy">    -99.72829017 </i>
   </energy>
  </scstep>
  <scstep>
   <time name="dav">    1.91    1.92</time>
   <time name="total">    2.22    2.23</time>
   <energy>
    <i name="e_fr_energy">    -99.75287277 </i>
    <i name="e_wo_entrp">    -99.70577935 </i>
    <i name="e_0_energy">    -99.72932606 </i>
   </energy>
  </scstep>
  <scstep>
   <time name="dav">    2.08    2.08</time>
   <time name="total">    2.41    2.41</time>
   <energy>
    <i name="e_fr_energy">    -99.75064563 </i>
    <i name="e_wo_entrp">    -99.70291323 </i>
    <i name="e_0_energy">    -99.72677943 </i>
   </energy>
  </scstep>
  <scstep>
   <time name="dav">    1.90    1.90</time>
   <time name="total">    2.25    2.25</time>
   <energy>
    <i name="e_fr_energy">    -99.75040651 </i>
    <i name="e_wo_entrp">    -99.70280209 </i>
    <i name="e_0_energy">    -99.72660430 </i>
   </energy>
  </scstep>
  <scstep>
   <time name="dav">    1.61    1.62</time>
   <time name="total">    1.75    1.75</time>
   <energy>
    <i name="alphaZ">    262.47990408 </i>
    <i name="ewald"> 139627.12069029 </i>
    <i name="hartreedc">-151922.75778139 </i>
    <i name="XCdc">     83.66908005 </i>
    <i name="pawpsdc">  14805.62067038 </i>
    <i name="pawaedc"> -14377.58105553 </i>
    <i name="eentropy">     -0.04752329 </i>
    <i name="bandstr">   -810.84863751 </i>
    <i name="atom">  12232.59423587 </i>
    <i name="e_fr_energy">    -99.75041705 </i>
    <i name="e_wo_entrp">    -99.70289376 </i>
    <i name="e_0_energy">    -99.72665540 </i>
   </energy>
  </scstep>
  <structure>
   <crystal>
    <varray name="basis" >
     <v>       5.63307200       0.00000000       0.21554300 </v>
     <v>       2.81241200       4.88076200       0.21554300 </v>
     <v>       0.00000000       0.00000000      36.85793800 </v>
    </varray>
    <i name="volume">   1013.36049145 </i>
    <varray name="rec_basis" >
     <v>       0.17752303      -0.10229302       0.00000000 </v>
     <v>       0.00000000       0.20488604       0.00000000 </v>
     <v>      -0.00103814      -0.00059996       0.02713120 </v>
    </varray>
   </crystal>
   <varray name="positions" >
    <v>       0.01562500       0.14062500       0.40625000 </v>
    <v>       0.01562500       0.64062500       0.40625000 </v>
    <v>       0.51562500       0.14062500       0.40625000 </v>
    <v>       0.51562500       0.64062500       0.40625000 </v>
    <v>       0.17187500       0.29687500       0.46875000 </v>
    <v>       0.17187500       0.79687500       0.46875000 </v>
    <v>       0.67187500       0.29687500       0.46875000 </v>
    <v>       0.67187500       0.79687500       0.46875000 </v>
    <v>       0.34220000       0.41002984       0.53245996 </v>
    <v>       0.34249357       0.91008200       0.53323057 </v>
    <v>       0.84350545       0.40981013       0.53246682 </v>
    <v>       0.84366601       0.90899855       0.53220432 </v>
    <v>       0.51685218       0.01113654       0.60040939 </v>
    <v>       0.51293050       0.51243798       0.59902661 </v>
    <v>       0.01017705       0.01151409       0.60042575 </v>
    <v>       0.01375778       0.51058492       0.59901892 </v>
    <v>       0.76229818       0.00336583       0.64995759 </v>
    <v>       0.73603704       0.98455226       0.67915258 </v>
   </varray>
  </structure>
  <varray name="forces" >
   <v>       0.05694350      -0.13873998      -0.54331870 </v>
   <v>       0.02945865      -0.07535495      -0.77489966 </v>
   <v>       0.01008870      -0.15637049      -0.56058944 </v>
   <v>       0.01596751      -0.04628781      -0.41989169 </v>
   <v>      -0.12633196       0.12301268       0.58295342 </v>
   <v>      -0.11893126       0.02270774       0.53864994 </v>
   <v>      -0.13556921       0.04649008       0.71645278 </v>
   <v>      -0.17148935       0.02209884       0.53711262 </v>
   <v>      -0.05411985      -0.09510540      -0.14650893 </v>
   <v>      -0.05446992      -0.17279327       0.54479530 </v>
   <v>      -0.07479807      -0.06442833      -0.10552115 </v>
   <v>      -0.08323472       0.03346997      -0.09670189 </v>
   <v>       0.07653868      -0.07594213       0.28083242 </v>
   <v>      -0.05660952       0.04498341      -0.03200297 </v>
   <v>      -0.23992715      -0.07945819       0.75802628 </v>
   <v>      -0.02246114      -0.18094922      -0.04306242 </v>
   <v>       3.52815931       0.48066171      -9.58623533 </v>
   <v>      -2.57921421       0.31200535       8.34990943 </v>
  </varray>
  <energy>
   <i name="e_fr_energy">    -99.75041705 </i>
   <i name="e_wo_entrp">    -99.70289376 </i>
   <i name="e_0_energy">    -99.72665540 </i>
  </energy>
  <time name="totalsc">   45.32   45.50</time>
 </calculation>
 <calculation>
  <scstep>
   <time name="dav">    2.36    2.36</time>
   <time name="total">    2.66    2.67</time>
   <energy>
    <i name="alphaZ">    262.47990408 </i>
    <i name="ewald"> 139625.11998423 </i>
    <i name="hartreedc">-151920.76257066 </i>
    <i name="XCdc">     83.66308514 </i>
    <i name="pawpsdc">  14805.62965847 </i>
    <i name="pawaedc"> -14377.58762985 </i>
    <i name="eentropy">     -0.04751830 </i>
    <i name="bandstr">   -810.84159241 </i>
    <i name="atom">  12232.59423587 </i>
    <i name="e_fr_energy">    -99.75244342 </i>
    <i name="e_wo_entrp">    -99.70492513 </i>
    <i name="e_0_energy">    -99.72868427 </i>
   </energy>
  </scstep>
  <scstep>
   <time name="dav">    3.30    3.30</time>
   <time name="total">    3.59    3.60</time>
   <energy>
    <i name="e_fr_energy">    -99.82383892 </i>
    <i name="e_wo_entrp">    -99.76900625 </i>
    <i name="e_0_energy">    -99.79642258 </i>
   </energy>
  </scstep>
  <scstep>
   <time name="dav">    3.10    3.11</time>
   <time name="total">    3.40    3.41</time>
   <energy>
    <i name="e_fr_energy">    -99.76102642 </i>
    <i name="e_wo_entrp">    -99.71238835 </i>
    <i name="e_0_energy">    -99.73670739 </i>
   </energy>
  </scstep>
  <scstep>
   <time name="dav">    2.95    2.97</time>
   <time name="total">    3.26    3.28</time>
   <energy>
    <i name="e_fr_energy">    -99.75212277 </i>
    <i name="e_wo_entrp">    -99.70479285 </i>
    <i name="e_0_energy">    -99.72845781 </i>
   </energy>
  </scstep>
  <scstep>
   <time name="dav">    2.51    2.51</time>
   <time name="total">    2.82    2.82</time>
   <energy>
    <i name="e_fr_energy">    -99.75333150 </i>
    <i name="e_wo_entrp">    -99.70691270 </i>
    <i name="e_0_energy">    -99.73012210 </i>
   </energy>
  </scstep>
  <scstep>
   <time name="dav">    2.06    2.06</time>
   <time name="total">    2.36    2.37</time>
   <energy>
    <i name="e_fr_energy">    -99.75237347 </i>
    <i name="e_wo_entrp">    -99.70530281 </i>
    <i name="e_0_energy">    -99.72883814 </i>
   </energy>
  </scstep>
  <scstep>
   <time name="dav">    1.83    1.83</time>
   <time name="total">    2.13    2.13</time>
   <energy>
    <i name="e_fr_energy">    -99.75223751 </i>
    <i name="e_wo_entrp">    -99.70422559 </i>
    <i name="e_0_energy">    -99.72823155 </i>
   </energy>
  </scstep>
  <scstep>
   <time name="dav">    1.73    1.74</time>
   <time name="total">    2.03    2.04</time>
   <energy>
    <i name="e_fr_energy">    -99.75243675 </i>
    <i name="e_wo_entrp">    -99.70435501 </i>
    <i name="e_0_energy">    -99.72839588 </i>
   </energy>
  </scstep>
  <scstep>
   <time name="dav">    1.66    1.67</time>
   <time name="total">    1.96    1.97</time>
   <energy>
    <i name="e_fr_energy">    -99.75219029 </i>
    <i name="e_wo_entrp">    -99.70432889 </i>
    <i name="e_0_energy">    -99.72825959 </i>
   </energy>
  </scstep>
  <scstep>
   <time name="dav">    1.68    1.69</time>
   <time name="total">    1.81    1.82</time>
   <energy>
    <i name="alphaZ">    262.47990408 </i>
    <i name="ewald"> 139625.11998423 </i>
    <i name="hartreedc">-151920.83490791 </i>
    <i name="XCdc">     83.66427621 </i>
    <i name="pawpsdc">  14808.60407306 </i>
    <i name="pawaedc"> -14380.54389421 </i>
    <i name="eentropy">     -0.04762175 </i>
    <i name="bandstr">   -810.78819210 </i>
    <i name="atom">  12232.59423587 </i>
    <i name="e_fr_energy">    -99.75214252 </i>
    <i name="e_wo_entrp">    -99.70452077 </i>
    <i name="e_0_energy">    -99.72833165 </i>
   </energy>
  </scstep>
  <structure>
   <crystal>
    <varray name="basis" >
     <v>       5.63307200       0.00000000       0.21554300 </v>
     <v>       2.81241200       4.88076200       0.21554300 </v>
     <v>       0.00000000       0.00000000      36.85793800 </v>
    </varray>
    <i name="volume">   1013.36049145 </i>
    <varray name="rec_basis" >
     <v>       0.17752303      -0.10229302       0.00000000 </v>
     <v>       0.00000000       0.20488604       0.00000000 </v>
     <v>      -0.00103814      -0.00059996       0.02713120 </v>
    </varray>
   </crystal>
   <varray name="positions" >
    <v>       0.01562500       0.14062500       0.40625000 </v>
    <v>       0.01562500       0.64062500       0.40625000 </v>
    <v>       0.51562500       0.14062500       0.40625000 </v>
    <v>       0.51562500       0.64062500       0.40625000 </v>
    <v>       0.17187500       0.29687500       0.46875000 </v>
    <v>       0.17187500       0.79687500       0.46875000 </v>
    <v>       0.67187500       0.29687500       0.46875000 </v>
    <v>       0.67187500       0.79687500       0.46875000 </v>
    <v>       0.34221057       0.41001455       0.53245400 </v>
    <v>       0.34249909       0.91006514       0.53321096 </v>
    <v>       0.84349225       0.40980032       0.53246098 </v>
    <v>       0.84365189       0.90900275       0.53220303 </v>
    <v>       0.51678625       0.01112605       0.60037836 </v>
    <v>       0.51293399       0.51240354       0.59902050 </v>
    <v>       0.01022961       0.01149586       0.60039469 </v>
    <v>       0.01374629       0.51058382       0.59901288 </v>
    <v>       0.76215161       0.00333195       0.65001180 </v>
    <v>       0.73626633       0.98476128       0.67924329 </v>
   </varray>
  </structure>
  <varray name="forces" >
   <v>       0.00277585      -0.15272090      -0.56586586 </v>
   <v>      -0.02477055      -0.09212178      -0.79851361 </v>
   <v>      -0.04405981      -0.17001630      -0.58329357 </v>
   <v>      -0.03813064      -0.06268528      -0.44292104 </v>
   <v>      -0.18055660       0.10676439       0.56864472 </v>
   <v>      -0.17424659       0.00733940       0.51963326 </v>
   <v>      -0.19056026       0.02923163       0.70376639 </v>
   <v>      -0.22388135       0.00749255       0.51754702 </v>
   <v>      -0.10973008      -0.10872472      -0.16372951 </v>
   <v>      -0.10789077      -0.18828167       0.52303292 </v>
   <v>      -0.12706527      -0.07863215      -0.12290451 </v>
   <v>      -0.13694712       0.01789442      -0.11634435 </v>
   <v>       0.02395349      -0.08605545       0.26506797 </v>
   <v>      -0.11065840       0.02856824      -0.06421433 </v>
   <v>      -0.29741180      -0.09173308       0.73258560 </v>
   <v>      -0.07675187      -0.19721357      -0.07350199 </v>
   <v>       3.40084110       0.63029798     -10.09419781 </v>
   <v>      -1.58490934       0.40059627       9.19520871 </v>
  </varray>
  <energy>
   <i name="e_fr_energy">    -99.75214252 </i>
   <i name="e_wo_entrp">    -99.70452077 </i>
   <i name="e_0_energy">    -99.72833165 </i>
  </energy>
  <time name="totalsc">   27.36   27.49</time>
 </calculation>
 <calculation>
  <scstep>
   <time name="dav">    2.25    2.25</time>
   <time name="total">    2.55    2.56</time>
   <energy>
    <i name="alphaZ">    262.47990408 </i>
    <i name="ewald"> 139627.65951245 </i>
    <i name="hartreedc">-151925.02150164 </i>
    <i name="XCdc">     83.63583256 </i>
    <i name="pawpsdc">  14808.66597832 </i>
    <i name="pawaedc"> -14380.60524418 </i>
    <i name="eentropy">     -0.04820570 </i>
    <i name="bandstr">   -809.32327878 </i>
    <i name="atom">  12232.59423587 </i>
    <i name="e_fr_energy">    -99.96276702 </i>
    <i name="e_wo_entrp">    -99.91456132 </i>
    <i name="e_0_energy">    -99.93866417 </i>
   </energy>
  </scstep>
  <scstep>
   <time name="dav">    2.45    2.46</time>
   <time name="total">    2.75    2.76</time>
   <energy>
    <i name="e_fr_energy">    -99.97202230 </i>
    <i name="e_wo_entrp">    -99.92353891 </i>
    <i name="e_0_energy">    -99.94778060 </i>
   </energy>
  </scstep>
  <scstep>
   <time name="dav">    2.77    2.79</time>
   <time name="total">    3.07    3.09</time>
   <energy>
    <i name="e_fr_energy">   -100.01110504 </i>
    <i name="e_wo_entrp">    -99.96649169 </i>
    <i name="e_0_energy">    -99.98879836 </i>
   </energy>
  </scstep>
  <scstep>
   <time name="dav">    2.78    2.78</time>
   <time name="total">    3.07    3.08</time>
   <energy>
    <i name="e_fr_energy">    -99.97448037 </i>
    <i name="e_wo_entrp">    -99.92547681 </i>
    <i name="e_0_energy">    -99.94997859 </i>
   </energy>
  </scstep>
  <scstep>
   <time name="dav">    2.82    2.83</time>
   <time name="total">    3.12    3.12</time>
   <energy>
    <i name="e_fr_energy">    -99.98326934 </i>
    <i name="e_wo_entrp">    -99.93863210 </i>
    <i name="e_0_energy">    -99.96095072 </i>
   </energy>
  </scstep>
  <scstep>
   <time name="dav">    2.61    2.61</time>
   <time name="total">    2.90    2.91</time>
   <energy>
    <i name="e_fr_energy">    -99.98516419 </i>
    <i name="e_wo_entrp">    -99.93563001 </i>
    <i name="e_0_energy">    -99.96039710 </i>
   </energy>
  </scstep>
  <scstep>
   <time name="dav">    3.14    3.15</time>
   <time name="total">    3.44    3.45</time>
   <energy>
    <i name="e_fr_energy">    -99.99042674 </i>
    <i name="e_wo_entrp">    -99.93726682 </i>
    <i name="e_0_energy">    -99.96384678 </i>
   </energy>
  </scstep>
  <scstep>
   <time name="dav">    2.99    3.00</time>
   <time name="total">    3.29    3.30</time>
   <energy>
    <i name="e_fr_energy">    -99.97016458 </i>
    <i name="e_wo_entrp">    -99.92356527 </i>
    <i name="e_0_energy">    -99.94686492 </i>
   </energy>
  </scstep>
  <scstep>
   <time name="dav">    2.35    2.35</time>
   <time name="total">    2.66    2.66</time>
   <energy>
    <i name="e_fr_energy">    -99.96920904 </i>
    <i name="e_wo_entrp">    -99.92072901 </i>
    <i name="e_0_energy">    -99.94496903 </i>
   </energy>
  </scstep>
  <scstep>
   <time name="dav">    1.87    1.88</time>
   <time name="total">    2.18    2.18</time>
   <energy>
    <i name="e_fr_energy">    -99.97005674 </i>
    <i name="e_wo_entrp">    -99.92240108 </i>
    <i name="e_0_energy">    -99.94622891 </i>
   </energy>
  </scstep>
  <scstep>
   <time name="dav">    1.73    1.73</time>
   <time name="total">    2.04    2.04</time>
   <energy>
    <i name="e_fr_energy">    -99.96930331 </i>
    <i name="e_wo_entrp">    -99.92119650 </i>
    <i name="e_0_energy">    -99.94524991 </i>
   </energy>
  </scstep>
  <scstep>
   <time name="dav">    1.76    1.77</time>
   <time name="total">    2.06    2.07</time>
   <energy>
    <i name="e_fr_energy">    -99.96890782 </i>
    <i name="e_wo_entrp">    -99.92070691 </i>
    <i name="e_0_energy">    -99.94480736 </i>
   </energy>
  </scstep>
  <scstep>
   <time name="dav">    1.74    1.75</time>
   <time name="total">    1.88    1.88</time>
   <energy>
    <i name="alphaZ">    262.47990408 </i>
    <i name="ewald"> 139627.65951245 </i>
    <i name="hartreedc">-151917.05847816 </i>
    <i name="XCdc">     83.58017234 </i>
    <i name="pawpsdc">  14788.07409461 </i>
    <i name="pawaedc"> -14360.01841896 </i>
    <i name="eentropy">     -0.04832320 </i>
    <i name="bandstr">   -817.23157436 </i>
    <i name="atom">  12232.59423587 </i>
    <i name="e_fr_energy">    -99.96887534 </i>
    <i name="e_wo_entrp">    -99.92055214 </i>
    <i name="e_0_energy">    -99.94471374 </i>
   </energy>
  </scstep>
  <structure>
   <crystal>
    <varray name="basis" >
     <v>       5.63307200       0.00000000       0.21554300 </v>
     <v>       2.81241200       4.88076200       0.21554300 </v>
     <v>       0.00000000       0.00000000      36.85793800 </v>
    </varray>
    <i name="volume">   1013.36049145 </i>
    <varray name="rec_basis" >
     <v>       0.17752303      -0.10229302       0.00000000 </v>
     <v>       0.00000000       0.20488604       0.00000000 </v>
     <v>      -0.00103814      -0.00059996       0.02713120 </v>
    </varray>
   </crystal>
   <varray name="positions" >
    <v>       0.01562500       0.14062500       0.40625000 </v>
    <v>       0.01562500       0.64062500       0.40625000 </v>
    <v>       0.51562500       0.14062500       0.40625000 </v>
    <v>       0.51562500       0.64062500       0.40625000 </v>
    <v>       0.17187500       0.29687500       0.46875000 </v>
    <v>       0.17187500       0.79687500       0.46875000 </v>
    <v>       0.67187500       0.29687500       0.46875000 </v>
    <v>       0.67187500       0.79687500       0.46875000 </v>
    <v>       0.34211530       0.41011374       0.53249764 </v>
    <v>       0.34245433       0.91015863       0.53338651 </v>
    <v>       0.84358316       0.40986183       0.53250483 </v>
    <v>       0.84373719       0.90897273       0.53221011 </v>
    <v>       0.51733659       0.01119142       0.60063861 </v>
    <v>       0.51288024       0.51268990       0.59906833 </v>
    <v>       0.00975377       0.01162280       0.60066980 </v>
    <v>       0.01384703       0.51054731       0.59905987 </v>
    <v>       0.76394935       0.00375256       0.64925874 </v>
    <v>       0.73404069       0.98315550       0.67878871 </v>
   </varray>
  </structure>
  <varray name="forces" >
   <v>       0.05028342      -0.04732888      -0.44403937 </v>
   <v>       0.02550574       0.00398742      -0.67972377 </v>
   <v>       0.00228953      -0.06692925      -0.46626934 </v>
   <v>       0.00691650       0.03521246      -0.31825302 </v>
   <v>      -0.13043892       0.20373711       0.70004909 </v>
   <v>      -0.13083358       0.11414723       0.65045427 </v>
   <v>      -0.14468453       0.13000814       0.83384952 </v>
   <v>      -0.17667943       0.11326136       0.64261048 </v>
   <v>      -0.04547475      -0.02297006      -0.05325732 </v>
   <v>      -0.07860332      -0.06971841       0.71044115 </v>
   <v>      -0.08352662       0.00802695      -0.00223404 </v>
   <v>      -0.09138085       0.13745629       0.01532073 </v>
   <v>       0.10021265      -0.00638410       0.40531700 </v>
   <v>      -0.06701111       0.13396866       0.05734874 </v>
   <v>      -0.25302657      -0.00721860       0.95030781 </v>
   <v>      -0.03181490      -0.10676235       0.03823343 </v>
   <v>       2.25104745      -0.24061505      -6.27918731 </v>
   <v>      -1.20278073      -0.31187892       3.23903195 </v>
  </varray>
  <energy>
   <i name="e_fr_energy">    -99.96887534 </i>
   <i name="e_wo_entrp">    -99.92055214 </i>
   <i name="e_0_energy">    -99.94471374 </i>
  </energy>
  <time name="totalsc">   36.42   36.56</time>
 </calculation>
 <calculation>
  <scstep>
   <time name="dav">    2.37    2.37</time>
   <time name="total">    2.67    2.69</time>
   <energy>
    <i name="alphaZ">    262.47990408 </i>
    <i name="ewald"> 139636.21192600 </i>
    <i name="hartreedc">-151929.87085663 </i>
    <i name="XCdc">     83.50380492 </i>
    <i name="pawpsdc">  14787.96608366 </i>
    <i name="pawaedc"> -14359.91020742 </i>
    <i name="eentropy">     -0.05049449 </i>
    <i name="bandstr">   -813.26098575 </i>
    <i name="atom">  12232.59423587 </i>
    <i name="e_fr_energy">   -100.33658977 </i>
    <i name="e_wo_entrp">   -100.28609528 </i>
    <i name="e_0_energy">   -100.31134253 </i>
   </energy>
  </scstep>
  <scstep>
   <time name="dav">    2.49    2.50</time>
   <time name="total">    2.78    2.80</time>
   <energy>
    <i name="e_fr_energy">   -100.44857903 </i>
    <i name="e_wo_entrp">   -100.39872901 </i>
    <i name="e_0_energy">   -100.42365402 </i>
   </energy>
  </scstep>
  <scstep>
   <time name="dav">    3.82    4.00</time>
   <time name="total">    4.11    4.28</time>
   <energy>
    <i name="e_fr_energy">   -101.08040736 </i>
    <i name="e_wo_entrp">   -101.02835126 </i>
    <i name="e_0_energy">   -101.05437931 </i>
   </energy>
  </scstep>
  <scstep>
   <time name="dav">    2.70    2.71</time>
   <time name="total">    3.00    3.02</time>
   <energy>
    <i name="e_fr_energy">   -100.52560133 </i>
    <i name="e_wo_entrp">   -100.48204274 </i>
    <i name="e_0_energy">   -100.50382204 </i>
   </energy>
  </scstep>
  <scstep>
   <time name="dav">    2.77    2.78</time>
   <time name="total">    3.05    3.06</time>
   <energy>
    <i name="e_fr_energy">   -100.66893227 </i>
    <i name="e_wo_entrp">   -100.61715616 </i>
    <i name="e_0_energy">   -100.64304422 </i>
   </energy>
  </scstep>
  <scstep>
   <time name="dav">    2.61    2.62</time>
   <time name="total">    2.90    2.92</time>
   <energy>
    <i name="e_fr_energy">   -100.60266162 </i>
    <i name="e_wo_entrp">   -100.55108556 </i>
    <i name="e_0_energy">   -100.57687359 </i>
   </energy>
  </scstep>
  <scstep>
   <time name="dav">    3.09    3.10</time>
   <time name="total">    3.40    3.41</time>
   <energy>
    <i name="e_fr_energy">   -100.44786765 </i>
    <i name="e_wo_entrp">   -100.40022842 </i>
    <i name="e_0_energy">   -100.42404803 </i>
   </energy>
  </scstep>
  <scstep>
   <time name="dav">    2.55    2.56</time>
   <time name="total">    2.86    2.87</time>
   <energy>
    <i name="e_fr_energy">   -100.42673911 </i>
    <i name="e_wo_entrp">   -100.37375061 </i>
    <i name="e_0_energy">   -100.40024486 </i>
   </energy>
  </scstep>
  <scstep>
   <time name="dav">    2.58    2.59</time>
   <time name="total">    2.88    2.89</time>
   <energy>
    <i name="e_fr_energy">   -100.43491838 </i>
    <i name="e_wo_entrp">   -100.38695597 </i>
    <i name="e_0_energy">   -100.41093718 </i>
   </energy>
  </scstep>
  <scstep>
   <time name="dav">    2.48    2.49</time>
   <time name="total">    2.78    2.79</time>
   <energy>
    <i name="e_fr_energy">   -100.42660594 </i>
    <i name="e_wo_entrp">   -100.37966838 </i>
    <i name="e_0_energy">   -100.40313716 </i>
   </energy>
  </scstep>
  <scstep>
   <time name="dav">    2.70    2.71</time>
   <time name="total">    3.00    3.00</time>
   <energy>
    <i name="e_fr_energy">   -100.41963454 </i>
    <i name="e_wo_entrp">   -100.37417339 </i>
    <i name="e_0_energy">   -100.39690397 </i>
   </energy>
  </scstep>
  <scstep>
   <time name="dav">    2.51    2.52</time>
   <time name="total">    2.82    2.83</time>
   <energy>
    <i name="e_fr_energy">   -100.41620009 </i>
    <i name="e_wo_entrp">   -100.36816702 </i>
    <i name="e_0_energy">   -100.39218355 </i>
   </energy>
  </scstep>
  <scstep>
   <time name="dav">    2.61    2.63</time>
   <time name="total">    2.92    2.93</time>
   <energy>
    <i name="e_fr_energy">   -100.41591562 </i>
    <i name="e_wo_entrp">   -100.36747856 </i>
    <i name="e_0_energy">   -100.39169709 </i>
   </energy>
  </scstep>
  <scstep>
   <time name="dav">    2.22    2.23</time>
   <time name="total">    2.53    2.54</time>
   <energy>
    <i name="e_fr_energy">   -100.41491185 </i>
    <i name="e_wo_entrp">   -100.36698441 </i>
    <i name="e_0_energy">   -100.39094813 </i>
   </energy>
  </scstep>
  <scstep>
   <time name="dav">    2.32    2.33</time>
   <time name="total">    2.63    2.64</time>
   <energy>
    <i name="e_fr_energy">   -100.41432446 </i>
    <i name="e_wo_entrp">   -100.36624019 </i>
    <i name="e_0_energy">   -100.39028232 </i>
   </energy>
  </scstep>
  <scstep>
   <time name="dav">    2.40    2.41</time>
   <time name="total">    2.71    2.72</time>
   <energy>
    <i name="e_fr_energy">   -100.41375059 </i>
    <i name="e_wo_entrp">   -100.36488173 </i>
    <i name="e_0_energy">   -100.38931616 </i>
   </energy>
  </scstep>
  <scstep>
   <time name="dav">    1.64    1.65</time>
   <time name="total">    1.95    1.96</time>
   <energy>
    <i name="e_fr_energy">   -100.41361374 </i>
    <i name="e_wo_entrp">   -100.36446128 </i>
    <i name="e_0_energy">   -100.38903751 </i>
   </energy>
  </scstep>
  <scstep>
   <time name="dav">    1.65    1.65</time>
   <time name="total">    1.78    1.79</time>
   <energy>
    <i name="alphaZ">    262.47990408 </i>
    <i name="ewald"> 139636.21192600 </i>
    <i name="hartreedc">-151907.12370234 </i>
    <i name="XCdc">     83.36156213 </i>
    <i name="pawpsdc">  14781.68637298 </i>
    <i name="pawaedc"> -14353.69935350 </i>
    <i name="eentropy">     -0.04933589 </i>
    <i name="bandstr">   -835.87517696 </i>
    <i name="atom">  12232.59423587 </i>
    <i name="e_fr_energy">   -100.41356764 </i>
    <i name="e_wo_entrp">   -100.36423175 </i>
    <i name="e_0_energy">   -100.38889969 </i>
   </energy>
  </scstep>
  <structure>
   <crystal>
    <varray name="basis" >
     <v>       5.63307200       0.00000000       0.21554300 </v>
     <v>       2.81241200       4.88076200       0.21554300 </v>
     <v>       0.00000000       0.00000000      36.85793800 </v>
    </varray>
    <i name="volume">   1013.36049145 </i>
    <varray name="rec_basis" >
     <v>       0.17752303      -0.10229302       0.00000000 </v>
     <v>       0.00000000       0.20488604       0.00000000 </v>
     <v>      -0.00103814      -0.00059996       0.02713120 </v>
    </varray>
   </crystal>
   <varray name="positions" >
    <v>       0.01562500       0.14062500       0.40625000 </v>
    <v>       0.01562500       0.64062500       0.40625000 </v>
    <v>       0.51562500       0.14062500       0.40625000 </v>
    <v>       0.51562500       0.64062500       0.40625000 </v>
    <v>       0.17187500       0.29687500       0.46875000 </v>
    <v>       0.17187500       0.79687500       0.46875000 </v>
    <v>       0.67187500       0.29687500       0.46875000 </v>
    <v>       0.67187500       0.79687500       0.46875000 </v>
    <v>       0.34182949       0.41041133       0.53262855 </v>
    <v>       0.34232006       0.91043910       0.53391318 </v>
    <v>       0.84385589       0.41004635       0.53263637 </v>
    <v>       0.84399308       0.90888267       0.53223137 </v>
    <v>       0.51898758       0.01138752       0.60141936 </v>
    <v>       0.51271897       0.51354896       0.59921185 </v>
    <v>       0.00832625       0.01200361       0.60149511 </v>
    <v>       0.01414925       0.51043781       0.59920083 </v>
    <v>       0.76934259       0.00501439       0.64699959 </v>
    <v>       0.72736378       0.97833816       0.67742496 </v>
   </varray>
  </structure>
  <varray name="forces" >
   <v>       0.24803319       0.06579043      -0.60194029 </v>
   <v>       0.23674281       0.09512321      -0.84582764 </v>
   <v>       0.19746696       0.04123409      -0.63689438 </v>
   <v>       0.19641084       0.12875601      -0.47180102 </v>
   <v>       0.07565097       0.29627113       0.57827623 </v>
   <v>       0.05692499       0.23754195       0.54117235 </v>
   <v>       0.04657575       0.23658581       0.70312953 </v>
   <v>       0.01876823       0.23340360       0.50613887 </v>
   <v>       0.19873389       0.02738118      -0.22246838 </v>
   <v>       0.00185950       0.08083529       0.75141810 </v>
   <v>       0.10252412       0.06797974      -0.14697971 </v>
   <v>       0.10877111       0.28876760      -0.10011841 </v>
   <v>       0.15479511       0.02800326       0.20387643 </v>
   <v>       0.13686894       0.26639165      -0.07263607 </v>
   <v>       0.02696614      -0.02156226       0.96052378 </v>
   <v>       0.16319287      -0.02894188      -0.13277229 </v>
   <v>      -1.38028238       0.68284494      -3.69167667 </v>
   <v>      -0.59000305      -2.72640574       2.67857958 </v>
  </varray>
  <energy>
   <i name="e_fr_energy">   -100.41356764 </i>
   <i name="e_wo_entrp">   -100.36423175 </i>
   <i name="e_0_energy">   -100.38889969 </i>
  </energy>
  <time name="totalsc">   52.21   52.57</time>
 </calculation>
 <calculation>
  <scstep>
   <time name="dav">    2.37    2.38</time>
   <time name="total">    2.66    2.67</time>
   <energy>
    <i name="alphaZ">    262.47990408 </i>
    <i name="ewald"> 139659.10225319 </i>
    <i name="hartreedc">-151934.10569426 </i>
    <i name="XCdc">     83.28981580 </i>
    <i name="pawpsdc">  14780.92310535 </i>
    <i name="pawaedc"> -14352.94181687 </i>
    <i name="eentropy">     -0.05339331 </i>
    <i name="bandstr">   -830.50845632 </i>
    <i name="atom">  12232.59423587 </i>
    <i name="e_fr_energy">    -99.22004647 </i>
    <i name="e_wo_entrp">    -99.16665316 </i>
    <i name="e_0_energy">    -99.19334982 </i>
   </energy>
  </scstep>
  <scstep>
   <time name="dav">    2.60    2.60</time>
   <time name="total">    2.90    2.91</time>
   <energy>
    <i name="e_fr_energy">   -101.25370951 </i>
    <i name="e_wo_entrp">   -101.21527767 </i>
    <i name="e_0_energy">   -101.23449359 </i>
   </energy>
  </scstep>
  <scstep>
   <time name="dav">    2.75    2.76</time>
   <time name="total">    3.05    3.06</time>
   <energy>
    <i name="e_fr_energy">   -101.61857475 </i>
    <i name="e_wo_entrp">   -101.57260179 </i>
    <i name="e_0_energy">   -101.59558827 </i>
   </energy>
  </scstep>
  <scstep>
   <time name="dav">    2.63    2.64</time>
   <time name="total">    2.93    2.93</time>
   <energy>
    <i name="e_fr_energy">   -100.20557687 </i>
    <i name="e_wo_entrp">   -100.17104525 </i>
    <i name="e_0_energy">   -100.18831106 </i>
   </energy>
  </scstep>
  <scstep>
   <time name="dav">    2.67    2.67</time>
   <time name="total">    2.95    2.96</time>
   <energy>
    <i name="e_fr_energy">   -100.13757984 </i>
    <i name="e_wo_entrp">   -100.08295747 </i>
    <i name="e_0_energy">   -100.11026865 </i>
   </energy>
  </scstep>
  <scstep>
   <time name="dav">    2.74    2.75</time>
   <time name="total">    3.04    3.05</time>
   <energy>
    <i name="e_fr_energy">   -101.38856862 </i>
    <i name="e_wo_entrp">   -101.34123017 </i>
    <i name="e_0_energy">   -101.36489939 </i>
   </energy>
  </scstep>
  <scstep>
   <time name="dav">    3.05    3.06</time>
   <time name="total">    3.35    3.36</time>
   <energy>
    <i name="e_fr_energy">    -99.80320892 </i>
    <i name="e_wo_entrp">    -99.75950765 </i>
    <i name="e_0_energy">    -99.78135829 </i>
   </energy>
  </scstep>
  <scstep>
   <time name="dav">    2.50    2.51</time>
   <time name="total">    2.81    2.82</time>
   <energy>
    <i name="e_fr_energy">    -99.80220399 </i>
    <i name="e_wo_entrp">    -99.76221158 </i>
    <i name="e_0_energy">    -99.78220779 </i>
   </energy>
  </scstep>
  <scstep>
   <time name="dav">    2.53    2.54</time>
   <time name="total">    2.84    2.84</time>
   <energy>
    <i name="e_fr_energy">    -99.74658349 </i>
    <i name="e_wo_entrp">    -99.69549528 </i>
    <i name="e_0_energy">    -99.72103939 </i>
   </energy>
  </scstep>
  <scstep>
   <time name="dav">    2.58    2.59</time>
   <time name="total">    2.88    2.89</time>
   <energy>
    <i name="e_fr_energy">    -99.72851656 </i>
    <i name="e_wo_entrp">    -99.68241720 </i>
    <i name="e_0_energy">    -99.70546688 </i>
   </energy>
  </scstep>
  <scstep>
   <time name="dav">    2.55    2.56</time>
   <time name="total">    2.86    2.86</time>
   <energy>
    <i name="e_fr_energy">    -99.71256705 </i>
    <i name="e_wo_entrp">    -99.66201284 </i>
    <i name="e_0_energy">    -99.68728995 </i>
   </energy>
  </scstep>
  <scstep>
   <time name="dav">    2.56    2.57</time>
   <time name="total">    2.85    2.86</time>
   <energy>
    <i name="e_fr_energy">    -99.69182815 </i>
    <i name="e_wo_entrp">    -99.64494885 </i>
    <i name="e_0_energy">    -99.66838850 </i>
   </energy>
  </scstep>
  <scstep>
   <time name="dav">    2.62    2.63</time>
   <time name="total">    2.92    2.93</time>
   <energy>
    <i name="e_fr_energy">    -99.68351908 </i>
    <i name="e_wo_entrp">    -99.63405808 </i>
    <i name="e_0_energy">    -99.65878858 </i>
   </energy>
  </scstep>
  <scstep>
   <time name="dav">    2.64    2.65</time>
   <time name="total">    2.92    2.93</time>
   <energy>
    <i name="e_fr_energy">    -99.67872769 </i>
    <i name="e_wo_entrp">    -99.62916693 </i>
    <i name="e_0_energy">    -99.65394731 </i>
   </energy>
  </scstep>
  <scstep>
   <time name="dav">    2.56    2.57</time>
   <time name="total">    2.85    2.87</time>
   <energy>
    <i name="e_fr_energy">    -99.67539922 </i>
    <i name="e_wo_entrp">    -99.62495370 </i>
    <i name="e_0_energy">    -99.65017646 </i>
   </energy>
  </scstep>
  <scstep>
   <time name="dav">    2.58    2.59</time>
[...]
        <r>  0.0156  0.0046  0.0002  0.0048  0.0380  0.0014  0.0069  0.0012  0.0108 </r>
        <r>  0.0109  0.0075  0.0008  0.0012  0.0350  0.0001  0.0087  0.0031  0.0104 </r>
        <r>  0.0247  0.0071  0.0003  0.0025  0.0284  0.0015  0.0009  0.0000  0.0096 </r>
        <r>  0.0006  0.0004  0.0040  0.0003  0.0097  0.0000  0.0032  0.0056  0.0011 </r>
        <r>  0.0014  0.0015  0.0002  0.0002  0.0032  0.0053  0.0013  0.0027  0.0010 </r>
        <r>  0.0013  0.0017  0.0013  0.0001  0.0027  0.0000  0.0011  0.0047  0.0008 </r>
        <r>  0.0035  0.0007  0.0000  0.0002  0.0092  0.0006  0.0024  0.0000  0.0013 </r>
        <r>  0.0007  0.0001  0.0006  0.0000  0.0000  0.0000  0.0000  0.0000  0.0000 </r>
        <r>  0.0001  0.0001  0.0008  0.0001  0.0000  0.0000  0.0000  0.0000  0.0000 </r>
       </set>
       <set comment="band 95">
        <r>  0.0059  0.0102  0.0007  0.0027  0.0223  0.0008  0.0045  0.0010  0.0061 </r>
        <r>  0.0164  0.0049  0.0000  0.0023  0.0378  0.0016  0.0058  0.0001  0.0137 </r>
        <r>  0.0132  0.0054  0.0007  0.0017  0.0369  0.0002  0.0067  0.0012  0.0136 </r>
        <r>  0.0107  0.0096  0.0000  0.0033  0.0206  0.0017  0.0021  0.0001  0.0056 </r>
        <r>  0.0095  0.0074  0.0008  0.0029  0.0138  0.0016  0.0002  0.0000  0.0032 </r>
        <r>  0.0144  0.0052  0.0011  0.0004  0.0216  0.0004  0.0012  0.0004  0.0089 </r>
        <r>  0.0094  0.0039  0.0008  0.0014  0.0221  0.0001  0.0034  0.0013  0.0098 </r>
        <r>  0.0032  0.0065  0.0004  0.0037  0.0135  0.0019  0.0032  0.0000  0.0035 </r>
        <r>  0.0005  0.0006  0.0024  0.0000  0.0002  0.0039  0.0000  0.0005  0.0004 </r>
        <r>  0.0020  0.0001  0.0028  0.0003  0.0016  0.0029  0.0000  0.0006  0.0001 </r>
        <r>  0.0000  0.0000  0.0016  0.0004  0.0016  0.0032  0.0011  0.0009  0.0002 </r>
        <r>  0.0002  0.0003  0.0020  0.0001  0.0003  0.0029  0.0001  0.0027  0.0006 </r>
        <r>  0.0078  0.0130  0.0000  0.0036  0.0355  0.0021  0.0026  0.0012  0.0050 </r>
        <r>  0.0173  0.0084  0.0004  0.0020  0.0439  0.0002  0.0040  0.0010  0.0122 </r>
        <r>  0.0171  0.0096  0.0000  0.0014  0.0511  0.0015  0.0048  0.0008  0.0158 </r>
        <r>  0.0086  0.0102  0.0005  0.0040  0.0286  0.0010  0.0010  0.0002  0.0042 </r>
        <r>  0.0000  0.0251  0.0003  0.0005  0.0000  0.0000  0.0000  0.0000  0.0000 </r>
        <r>  0.0000  0.0289  0.0003  0.0011  0.0000  0.0000  0.0000  0.0000  0.0000 </r>
       </set>
       <set comment="band 96">
        <r>  0.0072  0.0047  0.0031  0.0006  0.0272  0.0011  0.0052  0.0105  0.0105 </r>
        <r>  0.0180  0.0076  0.0041  0.0041  0.0107  0.0026  0.0000  0.0007  0.0024 </r>
        <r>  0.0002  0.0100  0.0057  0.0018  0.0174  0.0000  0.0068  0.0044  0.0043 </r>
        <r>  0.0203  0.0029  0.0015  0.0022  0.0307  0.0064  0.0021  0.0101  0.0113 </r>
        <r>  0.0007  0.0006  0.0006  0.0025  0.0135  0.0001  0.0068  0.0065  0.0062 </r>
        <r>  0.0028  0.0025  0.0000  0.0033  0.0044  0.0029  0.0119  0.0007  0.0014 </r>
        <r>  0.0195  0.0051  0.0030  0.0008  0.0048  0.0028  0.0064  0.0000  0.0008 </r>
        <r>  0.0191  0.0045  0.0024  0.0004  0.0089  0.0021  0.0004  0.0006  0.0036 </r>
        <r>  0.0035  0.0005  0.0001  0.0012  0.0087  0.0030  0.0191  0.0002  0.0029 </r>
        <r>  0.0004  0.0009  0.0008  0.0039  0.0027  0.0013  0.0018  0.0035  0.0014 </r>
        <r>  0.0033  0.0051  0.0016  0.0004  0.0018  0.0053  0.0005  0.0002  0.0009 </r>
        <r>  0.0291  0.0010  0.0081  0.0003  0.0062  0.0028  0.0080  0.0000  0.0013 </r>
        <r>  0.0040  0.0071  0.0017  0.0013  0.0357  0.0001  0.0129  0.0022  0.0176 </r>
        <r>  0.0249  0.0066  0.0027  0.0051  0.0149  0.0007  0.0001  0.0021  0.0038 </r>
        <r>  0.0004  0.0123  0.0029  0.0016  0.0189  0.0011  0.0062  0.0029  0.0096 </r>
        <r>  0.0326  0.0043  0.0021  0.0030  0.0341  0.0047  0.0013  0.0084  0.0116 </r>
        <r>  0.0005  0.0007  0.0005  0.0004  0.0000  0.0000  0.0000  0.0000  0.0000 </r>
        <r>  0.0001  0.0004  0.0000  0.0006  0.0000  0.0000  0.0000  0.0000  0.0000 </r>
       </set>
       <set comment="band 97">
        <r>  0.0402  0.0005  0.0120  0.0007  0.0380  0.0028  0.0001  0.0081  0.0114 </r>
        <r>  0.0040  0.0191  0.0013  0.0041  0.0004  0.0025  0.0002  0.0059  0.0010 </r>
        <r>  0.0000  0.0160  0.0007  0.0070  0.0023  0.0023  0.0006  0.0095  0.0023 </r>
        <r>  0.0145  0.0005  0.0035  0.0006  0.0389  0.0001  0.0021  0.0006  0.0121 </r>
        <r>  0.0000  0.0007  0.0058  0.0013  0.0006  0.0004  0.0000  0.0094  0.0001 </r>
        <r>  0.0104  0.0001  0.0010  0.0000  0.0000  0.0089  0.0059  0.0051  0.0000 </r>
        <r>  0.0071  0.0000  0.0060  0.0002  0.0002  0.0139  0.0077  0.0018  0.0005 </r>
        <r>  0.0001  0.0001  0.0088  0.0004  0.0000  0.0029  0.0000  0.0033  0.0000 </r>
        <r>  0.0542  0.0000  0.0001  0.0007  0.0230  0.0006  0.0067  0.0009  0.0092 </r>
        <r>  0.0039  0.0208  0.0006  0.0033  0.0000  0.0004  0.0048  0.0003  0.0000 </r>
        <r>  0.0059  0.0120  0.0001  0.0114  0.0001  0.0000  0.0064  0.0003  0.0001 </r>
        <r>  0.0022  0.0007  0.0000  0.0008  0.0282  0.0016  0.0070  0.0023  0.0142 </r>
        <r>  0.0063  0.0038  0.0000  0.0003  0.0018  0.0123  0.0000  0.0008  0.0011 </r>
        <r>  0.0286  0.0011  0.0146  0.0004  0.0036  0.0002  0.0060  0.0001  0.0003 </r>
        <r>  0.0005  0.0003  0.0101  0.0010  0.0091  0.0001  0.0143  0.0134  0.0082 </r>
        <r>  0.0011  0.0000  0.0005  0.0024  0.0018  0.0064  0.0011  0.0099  0.0000 </r>
        <r>  0.0092  0.0115  0.0042  0.0138  0.0000  0.0000  0.0000  0.0000  0.0000 </r>
        <r>  0.0002  0.0111  0.0014  0.0096  0.0000  0.0000  0.0000  0.0000  0.0000 </r>
       </set>
       <set comment="band 98">
        <r>  0.0010  0.0196  0.0003  0.0072  0.0014  0.0011  0.0001  0.0054  0.0019 </r>
        <r>  0.0205  0.0006  0.0006  0.0005  0.0465  0.0005  0.0018  0.0014  0.0143 </r>
        <r>  0.0405  0.0004  0.0067  0.0009  0.0418  0.0006  0.0001  0.0013  0.0129 </r>
        <r>  0.0012  0.0212  0.0000  0.0057  0.0006  0.0014  0.0000  0.0026  0.0014 </r>
        <r>  0.0012  0.0000  0.0023  0.0005  0.0003  0.0171  0.0023  0.0009  0.0005 </r>
        <r>  0.0007  0.0000  0.0124  0.0000  0.0000  0.0009  0.0004  0.0001  0.0000 </r>
        <r>  0.0010  0.0004  0.0045  0.0004  0.0002  0.0000  0.0013  0.0028  0.0000 </r>
        <r>  0.0031  0.0003  0.0000  0.0000  0.0000  0.0101  0.0012  0.0099  0.0001 </r>
        <r>  0.0060  0.0174  0.0000  0.0077  0.0000  0.0007  0.0039  0.0001  0.0000 </r>
        <r>  0.0278  0.0002  0.0001  0.0001  0.0342  0.0031  0.0012  0.0064  0.0169 </r>
        <r>  0.0339  0.0001  0.0000  0.0007  0.0330  0.0010  0.0001  0.0015  0.0149 </r>
        <r>  0.0045  0.0183  0.0000  0.0068  0.0002  0.0002  0.0039  0.0004  0.0001 </r>
        <r>  0.0001  0.0002  0.0060  0.0000  0.0081  0.0037  0.0048  0.0056  0.0034 </r>
        <r>  0.0033  0.0003  0.0000  0.0012  0.0025  0.0137  0.0020  0.0054  0.0004 </r>
        <r>  0.0056  0.0046  0.0006  0.0000  0.0036  0.0171  0.0006  0.0013  0.0012 </r>
        <r>  0.0091  0.0005  0.0114  0.0001  0.0031  0.0029  0.0030  0.0010  0.0000 </r>
        <r>  0.0055  0.0478  0.0025  0.0066  0.0000  0.0000  0.0000  0.0000  0.0000 </r>
        <r>  0.0001  0.0377  0.0008  0.0055  0.0000  0.0000  0.0000  0.0000  0.0000 </r>
       </set>
       <set comment="band 99">
        <r>  0.0015  0.0000  0.0078  0.0000  0.0084  0.0005  0.0002  0.0018  0.0029 </r>
        <r>  0.0000  0.0038  0.0034  0.0013  0.0001  0.0023  0.0000  0.0190  0.0001 </r>
        <r>  0.0000  0.0039  0.0030  0.0014  0.0002  0.0087  0.0000  0.0130  0.0000 </r>
        <r>  0.0159  0.0000  0.0209  0.0003  0.0045  0.0000  0.0003  0.0001  0.0015 </r>
        <r>  0.0002  0.0000  0.0162  0.0000  0.0010  0.0005  0.0016  0.0035  0.0010 </r>
        <r>  0.0043  0.0005  0.0043  0.0028  0.0004  0.0092  0.0037  0.0038  0.0007 </r>
        <r>  0.0062  0.0028  0.0037  0.0000  0.0004  0.0001  0.0030  0.0183  0.0000 </r>
        <r>  0.0099  0.0001  0.0019  0.0001  0.0022  0.0018  0.0035  0.0081  0.0011 </r>
        <r>  0.0006  0.0007  0.0015  0.0017  0.0022  0.0020  0.0001  0.0113  0.0010 </r>
        <r>  0.0071  0.0013  0.0097  0.0002  0.0001  0.0029  0.0131  0.0022  0.0003 </r>
        <r>  0.0204  0.0018  0.0058  0.0008  0.0000  0.0006  0.0134  0.0009  0.0000 </r>
        <r>  0.0042  0.0006  0.0015  0.0020  0.0015  0.0015  0.0004  0.0023  0.0001 </r>
        <r>  0.0117  0.0021  0.0082  0.0096  0.0020  0.0060  0.0146  0.0036  0.0064 </r>
        <r>  0.0070  0.0002  0.0015  0.0031  0.0009  0.0001  0.0036  0.0000  0.0004 </r>
        <r>  0.0037  0.0012  0.0114  0.0007  0.0078  0.0042  0.0249  0.0037  0.0011 </r>
        <r>  0.0378  0.0044  0.0002  0.0000  0.0074  0.0002  0.0001  0.0001  0.0045 </r>
        <r>  0.0008  0.0676  0.0060  0.0519  0.0000  0.0000  0.0000  0.0000  0.0000 </r>
        <r>  0.0002  0.0372  0.0033  0.0327  0.0000  0.0000  0.0000  0.0000  0.0000 </r>
       </set>
       <set comment="band 100">
        <r>  0.0015  0.0105  0.0005  0.0036  0.0001  0.0104  0.0001  0.0009  0.0001 </r>
        <r>  0.0274  0.0001  0.0225  0.0008  0.0148  0.0014  0.0000  0.0014  0.0051 </r>
        <r>  0.0198  0.0003  0.0002  0.0003  0.0155  0.0001  0.0001  0.0001  0.0054 </r>
        <r>  0.0002  0.0106  0.0001  0.0033  0.0010  0.0006  0.0000  0.0116  0.0004 </r>
        <r>  0.0045  0.0124  0.0035  0.0037  0.0000  0.0016  0.0013  0.0049  0.0005 </r>
        <r>  0.0195  0.0006  0.0013  0.0001  0.0149  0.0026  0.0005  0.0143  0.0058 </r>
        <r>  0.0186  0.0002  0.0086  0.0004  0.0104  0.0005  0.0005  0.0007  0.0045 </r>
        <r>  0.0001  0.0102  0.0066  0.0059  0.0005  0.0056  0.0006  0.0000  0.0013 </r>
        <r>  0.0049  0.0008  0.0025  0.0000  0.0004  0.0135  0.0008  0.0029  0.0015 </r>
        <r>  0.0002  0.0000  0.0294  0.0000  0.0001  0.0018  0.0045  0.0063  0.0001 </r>
        <r>  0.0027  0.0004  0.0072  0.0008  0.0000  0.0009  0.0001  0.0042  0.0000 </r>
        <r>  0.0013  0.0003  0.0024  0.0007  0.0001  0.0085  0.0025  0.0115  0.0024 </r>
        <r>  0.0356  0.0000  0.0229  0.0039  0.0087  0.0021  0.0088  0.0070  0.0026 </r>
        <r>  0.0033  0.0196  0.0004  0.0027  0.0011  0.0058  0.0012  0.0003  0.0038 </r>
        <r>  0.0015  0.0084  0.0008  0.0119  0.0018  0.0039  0.0007  0.0045  0.0053 </r>
        <r>  0.0071  0.0000  0.0000  0.0027  0.0153  0.0000  0.0028  0.0012  0.0096 </r>
        <r>  0.0076  0.0417  0.0062  0.0302  0.0000  0.0000  0.0000  0.0000  0.0000 </r>
        <r>  0.0007  0.0205  0.0036  0.0133  0.0000  0.0000  0.0000  0.0000  0.0000 </r>
       </set>
       <set comment="band 101">
        <r>  0.0204  0.0010  0.0007  0.0006  0.0090  0.0002  0.0002  0.0063  0.0033 </r>
        <r>  0.0012  0.0071  0.0044  0.0030  0.0021  0.0028  0.0000  0.0026  0.0008 </r>
        <r>  0.0043  0.0086  0.0142  0.0018  0.0011  0.0041  0.0000  0.0008  0.0004 </r>
        <r>  0.0164  0.0007  0.0104  0.0012  0.0128  0.0066  0.0000  0.0079  0.0044 </r>
        <r>  0.0252  0.0008  0.0002  0.0016  0.0073  0.0009  0.0028  0.0004  0.0024 </r>
        <r>  0.0014  0.0103  0.0083  0.0040  0.0005  0.0005  0.0000  0.0071  0.0014 </r>
        <r>  0.0045  0.0097  0.0026  0.0037  0.0015  0.0069  0.0004  0.0016  0.0020 </r>
        <r>  0.0068  0.0019  0.0128  0.0003  0.0131  0.0021  0.0000  0.0144  0.0048 </r>
        <r>  0.0019  0.0001  0.0002  0.0001  0.0001  0.0002  0.0038  0.0004  0.0004 </r>
        <r>  0.0012  0.0007  0.0000  0.0000  0.0009  0.0043  0.0001  0.0258  0.0008 </r>
        <r>  0.0001  0.0001  0.0009  0.0003  0.0000  0.0209  0.0007  0.0001  0.0017 </r>
        <r>  0.0059  0.0000  0.0294  0.0000  0.0000  0.0008  0.0017  0.0000  0.0000 </r>
        <r>  0.0025  0.0062  0.0072  0.0050  0.0018  0.0042  0.0035  0.0132  0.0016 </r>
        <r>  0.0141  0.0012  0.0001  0.0006  0.0132  0.0006  0.0008  0.0000  0.0085 </r>
        <r>  0.0305  0.0012  0.0122  0.0001  0.0032  0.0111  0.0004  0.0219  0.0009 </r>
        <r>  0.0109  0.0149  0.0026  0.0022  0.0006  0.0037  0.0019  0.0002  0.0002 </r>
        <r>  0.0086  0.0727  0.0099  0.0011  0.0000  0.0000  0.0000  0.0000  0.0000 </r>
        <r>  0.0010  0.0336  0.0061  0.0007  0.0000  0.0000  0.0000  0.0000  0.0000 </r>
       </set>
       <set comment="band 102">
        <r>  0.0097  0.0009  0.0265  0.0000  0.0063  0.0003  0.0001  0.0095  0.0014 </r>
        <r>  0.0032  0.0042  0.0070  0.0011  0.0004  0.0094  0.0008  0.0003  0.0010 </r>
        <r>  0.0011  0.0037  0.0208  0.0015  0.0001  0.0039  0.0005  0.0064  0.0007 </r>
        <r>  0.0204  0.0001  0.0005  0.0008  0.0044  0.0064  0.0013  0.0050  0.0009 </r>
        <r>  0.0203  0.0012  0.0053  0.0007  0.0134  0.0033  0.0023  0.0138  0.0047 </r>
        <r>  0.0084  0.0166  0.0137  0.0033  0.0008  0.0003  0.0009  0.0019  0.0005 </r>
        <r>  0.0014  0.0125  0.0127  0.0078  0.0022  0.0018  0.0001  0.0035  0.0011 </r>
        <r>  0.0264  0.0016  0.0060  0.0006  0.0079  0.0018  0.0024  0.0043  0.0030 </r>
        <r>  0.0153  0.0018  0.0396  0.0013  0.0040  0.0016  0.0019  0.0000  0.0024 </r>
        <r>  0.0092  0.0087  0.0009  0.0023  0.0023  0.0082  0.0004  0.0027  0.0000 </r>
        <r>  0.0032  0.0059  0.0025  0.0028  0.0047  0.0001  0.0000  0.0257  0.0002 </r>
        <r>  0.0084  0.0031  0.0045  0.0000  0.0041  0.0011  0.0005  0.0007  0.0028 </r>
        <r>  0.0001  0.0002  0.0003  0.0012  0.0011  0.0083  0.0002  0.0001  0.0008 </r>
        <r>  0.0036  0.0000  0.0210  0.0001  0.0000  0.0000  0.0002  0.0179  0.0003 </r>
        <r>  0.0000  0.0011  0.0001  0.0001  0.0007  0.0046  0.0000  0.0003  0.0036 </r>
        <r>  0.0035  0.0000  0.0362  0.0000  0.0009  0.0007  0.0000  0.0090  0.0001 </r>
        <r>  0.0032  0.0008  0.0034  0.0003  0.0000  0.0000  0.0000  0.0000  0.0000 </r>
        <r>  0.0004  0.0002  0.0004  0.0001  0.0000  0.0000  0.0000  0.0000  0.0000 </r>
       </set>
       <set comment="band 103">
        <r>  0.0002  0.0010  0.0214  0.0003  0.0001  0.0008  0.0008  0.0043  0.0004 </r>
        <r>  0.0092  0.0000  0.0004  0.0010  0.0011  0.0055  0.0013  0.0050  0.0001 </r>
        <r>  0.0014  0.0008  0.0183  0.0001  0.0020  0.0004  0.0004  0.0083  0.0003 </r>
        <r>  0.0030  0.0012  0.0073  0.0003  0.0002  0.0043  0.0014  0.0000  0.0005 </r>
        <r>  0.0000  0.0039  0.0163  0.0033  0.0016  0.0015  0.0003  0.0022  0.0008 </r>
        <r>  0.0077  0.0012  0.0073  0.0007  0.0020  0.0026  0.0006  0.0059  0.0003 </r>
        <r>  0.0065  0.0012  0.0039  0.0004  0.0055  0.0026  0.0016  0.0119  0.0012 </r>
        <r>  0.0085  0.0072  0.0136  0.0003  0.0003  0.0003  0.0022  0.0029  0.0002 </r>
        <r>  0.0025  0.0026  0.0006  0.0013  0.0032  0.0013  0.0000  0.0176  0.0009 </r>
        <r>  0.0010  0.0021  0.0134  0.0003  0.0046  0.0000  0.0009  0.0003  0.0016 </r>
        <r>  0.0140  0.0008  0.0323  0.0016  0.0027  0.0003  0.0012  0.0000  0.0009 </r>
        <r>  0.0091  0.0035  0.0008  0.0005  0.0007  0.0070  0.0009  0.0107  0.0002 </r>
        <r>  0.0047  0.0012  0.0004  0.0008  0.0001  0.0014  0.0041  0.0096  0.0018 </r>
        <r>  0.0151  0.0000  0.0346  0.0000  0.0044  0.0006  0.0001  0.0100  0.0005 </r>
        <r>  0.0081  0.0001  0.0028  0.0002  0.0008  0.0002  0.0029  0.0073  0.0001 </r>
        <r>  0.0166  0.0008  0.0181  0.0003  0.0005  0.0006  0.0000  0.0172  0.0012 </r>
        <r>  0.0001  0.0379  0.0036  0.0164  0.0000  0.0000  0.0000  0.0000  0.0000 </r>
        <r>  0.0001  0.0052  0.0005  0.0012  0.0000  0.0000  0.0000  0.0000  0.0000 </r>
       </set>
       <set comment="band 104">
        <r>  0.0058  0.0013  0.0005  0.0001  0.0000  0.0079  0.0017  0.0033  0.0013 </r>
        <r>  0.0078  0.0002  0.0195  0.0000  0.0026  0.0007  0.0001  0.0012  0.0001 </r>
        <r>  0.0151  0.0000  0.0080  0.0012  0.0026  0.0047  0.0005  0.0012  0.0001 </r>
        <r>  0.0000  0.0013  0.0131  0.0001  0.0000  0.0060  0.0011  0.0059  0.0015 </r>
        <r>  0.0149  0.0166  0.0006  0.0009  0.0003  0.0008  0.0021  0.0042  0.0012 </r>
        <r>  0.0305  0.0009  0.0002  0.0008  0.0102  0.0000  0.0070  0.0038  0.0007 </r>
        <r>  0.0139  0.0006  0.0132  0.0012  0.0084  0.0019  0.0008  0.0001  0.0006 </r>
        <r>  0.0012  0.0114  0.0051  0.0038  0.0011  0.0040  0.0003  0.0002  0.0022 </r>
        <r>  0.0194  0.0130  0.0002  0.0029  0.0035  0.0009  0.0004  0.0015  0.0012 </r>
        <r>  0.0389  0.0032  0.0000  0.0024  0.0054  0.0008  0.0118  0.0004  0.0016 </r>
        <r>  0.0074  0.0054  0.0049  0.0009  0.0060  0.0001  0.0001  0.0001  0.0027 </r>
        <r>  0.0213  0.0094  0.0004  0.0061  0.0055  0.0004  0.0012  0.0039  0.0016 </r>
        <r>  0.0022  0.0091  0.0001  0.0152  0.0003  0.0002  0.0059  0.0122  0.0030 </r>
        <r>  0.0036  0.0045  0.0006  0.0042  0.0035  0.0018  0.0008  0.0000  0.0021 </r>
        <r>  0.0129  0.0034  0.0000  0.0133  0.0025  0.0002  0.0163  0.0125  0.0014 </r>
        <r>  0.0026  0.0147  0.0000  0.0028  0.0005  0.0024  0.0007  0.0000  0.0040 </r>
        <r>  0.0012  0.0099  0.0008  0.0595  0.0000  0.0000  0.0000  0.0000  0.0000 </r>
        <r>  0.0003  0.0036  0.0000  0.0111  0.0000  0.0000  0.0000  0.0000  0.0000 </r>
       </set>
      </set>
     </set>
    </set>
   </array>
  </projected>
 </calculation>
 <structure name="finalpos" >
  <crystal>
   <varray name="basis" >
    <v>       5.63307200       0.00000000       0.21554300 </v>
    <v>       2.81241200       4.88076200       0.21554300 </v>
    <v>       0.00000000       0.00000000      36.85793800 </v>
   </varray>
   <i name="volume">   1013.36049145 </i>
   <varray name="rec_basis" >
    <v>       0.17752303      -0.10229302       0.00000000 </v>
    <v>       0.00000000       0.20488604       0.00000000 </v>
    <v>      -0.00103814      -0.00059996       0.02713120 </v>
   </varray>
  </crystal>
  <varray name="positions" >
   <v>       0.01562500       0.14062500       0.40625000 </v>
   <v>       0.01562500       0.64062500       0.40625000 </v>
   <v>       0.51562500       0.14062500       0.40625000 </v>
   <v>       0.51562500       0.64062500       0.40625000 </v>
   <v>       0.17187500       0.29687500       0.46875000 </v>
   <v>       0.17187500       0.79687500       0.46875000 </v>
   <v>       0.67187500       0.29687500       0.46875000 </v>
   <v>       0.67187500       0.79687500       0.46875000 </v>
   <v>       0.34280174       0.40882250       0.53199396 </v>
   <v>       0.34135057       0.90838220       0.53668010 </v>
   <v>       0.84412041       0.40923022       0.53213106 </v>
   <v>       0.84326509       0.91055136       0.53195590 </v>
   <v>       0.52031682       0.01015294       0.60237869 </v>
   <v>       0.51306510       0.51515262       0.59895119 </v>
   <v>       0.01241777       0.00925944       0.60394130 </v>
   <v>       0.01627729       0.50765359       0.59875069 </v>
   <v>       0.76089387       0.01064886       0.64568592 </v>
   <v>       0.72557936       0.97549705       0.67702025 </v>
  </varray>
  <varray name="selective"  type="logical" >
   <v type="logical" >  F  F  F </v>
   <v type="logical" >  F  F  F </v>
   <v type="logical" >  F  F  F </v>
   <v type="logical" >  F  F  F </v>
   <v type="logical" >  F  F  F </v>
   <v type="logical" >  F  F  F </v>
   <v type="logical" >  F  F  F </v>
   <v type="logical" >  F  F  F </v>
   <v type="logical" >  T  T  T </v>
   <v type="logical" >  T  T  T </v>
   <v type="logical" >  T  T  T </v>
   <v type="logical" >  T  T  T </v>
   <v type="logical" >  T  T  T </v>
   <v type="logical" >  T  T  T </v>
   <v type="logical" >  T  T  T </v>
   <v type="logical" >  T  T  T </v>
   <v type="logical" >  T  T  T </v>
   <v type="logical" >  T  T  T </v>
  </varray>
  <nose>
   <v>      -3.00000000       0.00000000       0.00010000       0.00010000 </v>
  </nose>
 </structure>
</modeling>
