 running on   16 total cores
 distrk:  each k-point on   16 cores,    1 groups
 distr:  one band on    4 cores,    4 groups
 vasp.6.2.0 18Jan21 (build Feb  1 2022 01:28:57) complex                         
 POSCAR found type information on POSCAR PtC O 
 POSCAR found :  3 types and      18 ions
 scaLAPACK will be used
 -----------------------------------------------------------------------------
|                                                                             |
|           W    W    AA    RRRRR   N    N  II  N    N   GGGG   !!!           |
|           W    W   A  A   R    R  NN   N  II  NN   N  G    G  !!!           |
|           W    W  A    A  R    R  N N  N  II  N N  N  G       !!!           |
|           W WW W  AAAAAA  RRRRR   N  N N  II  N  N N  G  GGG   !            |
|           WW  WW  A    A  R   R   N   NN  II  N   NN  G    G                |
|           W    W  A    A  R    R  N    N  II  N    N   GGGG   !!!           |
|                                                                             |
|     The real-space projection scheme for the treatment of the non-local     |
|     pseudopotentials has been switched on but on file POTCAR I have not     |
|     found any entries, signalling me that you have never performed a        |
|     real-space optimization of all non-local projectors! BE WARNED that     |
|     a calculation using the real-space projection scheme together with      |
|     non-local projectors which were not real-space optimized (according     |
|     to the plane-wave cutoff used in this calculation) might give more      |
|     or less inaccurate results. I hope you know what you are doing.         |
|                                                                             |
 -----------------------------------------------------------------------------

 -----------------------------------------------------------------------------
|                                                                             |
|               ----> ADVICE to this user running VASP <----                  |
|                                                                             |
|     You enforced a specific xc type in the INCAR file but a different       |
|     type was found in the POTCAR file.                                      |
|     I HOPE YOU KNOW WHAT YOU ARE DOING!                                     |
|                                                                             |
 -----------------------------------------------------------------------------

 LDA part: xc-table for Pade appr. of Perdew
 POSCAR, INCAR and KPOINTS ok, starting setup
 FFT: planning ...
 WAVECAR not read
 entering main loop
       N       E                     dE             d eps       ncg     rms          rms(c)
DAV:   1     0.114222547240E+04    0.11422E+04   -0.61856E+04   848   0.112E+03
DAV:   2     0.189758264372E+01   -0.11403E+04   -0.10621E+04  1096   0.248E+02
DAV:   3    -0.102472059560E+03   -0.10437E+03   -0.97334E+02   976   0.746E+01
DAV:   4    -0.106331568851E+03   -0.38595E+01   -0.36909E+01  1112   0.139E+01
DAV:   5    -0.106431588271E+03   -0.10002E+00   -0.99091E-01  1112   0.229E+00    0.366E+01
DAV:   6    -0.109836581782E+03   -0.34050E+01   -0.18988E+01   952   0.247E+01    0.432E+01
DAV:   7    -0.110810329304E+03   -0.97375E+00   -0.47362E+01  1128   0.296E+01    0.372E+01
DAV:   8    -0.169949631013E+03   -0.59139E+02   -0.91588E+01  1312   0.781E+01    0.660E+01
DAV:   9    -0.143286073250E+03    0.26664E+02   -0.46912E+01  1024   0.154E+01    0.521E+01
DAV:  10    -0.159555398508E+03   -0.16269E+02   -0.54975E+01   952   0.374E+01    0.644E+01
DAV:  11    -0.114734999225E+03    0.44820E+02   -0.74942E+01  1048   0.288E+01    0.366E+01
DAV:  12    -0.112940942072E+03    0.17941E+01   -0.19196E+01   944   0.179E+01    0.371E+01
DAV:  13    -0.108508070619E+03    0.44329E+01   -0.91829E+00   904   0.155E+01    0.277E+01
DAV:  14    -0.109932823092E+03   -0.14248E+01   -0.68765E+00   928   0.132E+01    0.243E+01
DAV:  15    -0.104312707363E+03    0.56201E+01   -0.69715E+00   968   0.819E+00    0.188E+01
DAV:  16    -0.100452973619E+03    0.38597E+01   -0.72285E+00  1040   0.118E+01    0.752E+00
DAV:  17    -0.100423570795E+03    0.29403E-01   -0.37459E-01   904   0.196E+00    0.742E+00
DAV:  18    -0.100437116052E+03   -0.13545E-01   -0.14549E-02  1240   0.423E-01    0.738E+00
DAV:  19    -0.100591381397E+03   -0.15427E+00   -0.68122E-01   968   0.374E+00    0.997E+00
DAV:  20    -0.100691139717E+03   -0.99758E-01   -0.22117E-01   928   0.210E+00    0.906E+00
DAV:  21    -0.100612854122E+03    0.78286E-01   -0.58020E-01   944   0.234E+00    0.707E+00
DAV:  22    -0.101291896529E+03   -0.67904E+00   -0.11060E+00   888   0.362E+00    0.105E+01
DAV:  23    -0.101086109634E+03    0.20579E+00   -0.76337E-02   904   0.138E+00    0.981E+00
DAV:  24    -0.100347619016E+03    0.73849E+00   -0.14630E+00  1016   0.452E+00    0.872E+00
DAV:  25    -0.100303499778E+03    0.44119E-01   -0.20493E-01   912   0.236E+00    0.104E+01
DAV:  26    -0.100267298071E+03    0.36202E-01   -0.44165E-02   944   0.104E+00    0.107E+01
DAV:  27    -0.100253028467E+03    0.14270E-01   -0.16867E-02   928   0.970E-01    0.112E+01
DAV:  28    -0.100223396424E+03    0.29632E-01   -0.30826E-02   928   0.915E-01    0.112E+01
DAV:  29    -0.100222681284E+03    0.71514E-03   -0.10745E-02   960   0.438E-01    0.117E+01
DAV:  30    -0.100223900082E+03   -0.12188E-02   -0.30866E-02   912   0.122E+00    0.130E+01
DAV:  31    -0.100217293148E+03    0.66069E-02   -0.40381E-02   920   0.842E-01    0.133E+01
DAV:  32    -0.100242280843E+03   -0.24988E-01   -0.69350E-02   968   0.624E-01    0.136E+01
DAV:  33    -0.100213650731E+03    0.28630E-01   -0.44197E-03   960   0.337E-01    0.132E+01
DAV:  34    -0.100146697551E+03    0.66953E-01   -0.22513E-02   872   0.714E-01    0.129E+01
DAV:  35    -0.100125336353E+03    0.21361E-01   -0.81463E-03   960   0.361E-01    0.130E+01
DAV:  36    -0.100078555421E+03    0.46781E-01   -0.17755E-02   936   0.424E-01    0.124E+01
DAV:  37    -0.100047015029E+03    0.31540E-01   -0.13364E-02   928   0.363E-01    0.121E+01
DAV:  38    -0.100043610598E+03    0.34044E-02   -0.82711E-04   888   0.988E-02    0.121E+01
DAV:  39    -0.100004498859E+03    0.39112E-01   -0.22230E-02   912   0.565E-01    0.115E+01
DAV:  40    -0.999828248602E+02    0.21674E-01   -0.10603E-02   968   0.495E-01    0.109E+01
DAV:  41    -0.999724940276E+02    0.10331E-01   -0.34562E-03   944   0.314E-01    0.105E+01
DAV:  42    -0.999674645092E+02    0.50295E-02   -0.65814E-04   896   0.125E-01    0.104E+01
DAV:  43    -0.999466566719E+02    0.20808E-01   -0.31537E-03   896   0.249E-01    0.983E+00
DAV:  44    -0.999257791837E+02    0.20877E-01   -0.38390E-03   936   0.256E-01    0.926E+00
DAV:  45    -0.999134354077E+02    0.12344E-01   -0.10796E-03   912   0.105E-01    0.904E+00
DAV:  46    -0.998836839400E+02    0.29751E-01   -0.53836E-03   880   0.214E-01    0.835E+00
DAV:  47    -0.998613544104E+02    0.22330E-01   -0.35384E-03   944   0.210E-01    0.783E+00
DAV:  48    -0.998299233968E+02    0.31431E-01   -0.77525E-03   880   0.276E-01    0.712E+00
DAV:  49    -0.997735648307E+02    0.56359E-01   -0.31959E-02   896   0.667E-01    0.580E+00
DAV:  50    -0.997570262560E+02    0.16539E-01   -0.47858E-03   976   0.234E-01    0.535E+00
DAV:  51    -0.996735778372E+02    0.83448E-01   -0.37227E-01   880   0.200E+00    0.101E+00
DAV:  52    -0.996748595905E+02   -0.12818E-02   -0.13415E-02   872   0.412E-01    0.123E+00
DAV:  53    -0.996730706653E+02    0.17889E-02   -0.30297E-03   984   0.199E-01    0.914E-01
DAV:  54    -0.996726591742E+02    0.41149E-03   -0.72119E-03   928   0.356E-01    0.663E-01
DAV:  55    -0.996731268027E+02   -0.46763E-03   -0.29067E-03   936   0.167E-01    0.850E-01
DAV:  56    -0.996723912281E+02    0.73557E-03   -0.17392E-03   920   0.240E-01    0.686E-01
DAV:  57    -0.996712341650E+02    0.11571E-02   -0.81516E-04   848   0.157E-01    0.560E-01
DAV:  58    -0.996710838776E+02    0.15029E-03   -0.18946E-04   496   0.529E-02    0.479E-01
DAV:  59    -0.996704409411E+02    0.64294E-03   -0.29720E-04   624   0.777E-02    0.425E-01
DAV:  60    -0.996697982345E+02    0.64271E-03   -0.19829E-04   552   0.849E-02
 -----------------------------------------------------------------------------
|                                                                             |
|           W    W    AA    RRRRR   N    N  II  N    N   GGGG   !!!           |
|           W    W   A  A   R    R  NN   N  II  NN   N  G    G  !!!           |
|           W    W  A    A  R    R  N N  N  II  N N  N  G       !!!           |
|           W WW W  AAAAAA  RRRRR   N  N N  II  N  N N  G  GGG   !            |
|           WW  WW  A    A  R   R   N   NN  II  N   NN  G    G                |
|           W    W  A    A  R    R  N    N  II  N    N   GGGG   !!!           |
|                                                                             |
|     The electronic self-consistency was not achieved in the given           |
|     number of steps (NELM). The forces and other quantities evaluated       |
|     might not be reliable so examine the results carefully. If you find     |
|     spurious results, we suggest increasing NELM, if you were close to      |
|     convergence or switching to a different ALGO or adjusting the           |
|     density mixing parameters otherwise.                                    |
|                                                                             |
 -----------------------------------------------------------------------------

   1 F= -.99669798E+02 E0= -.99645744E+02  d E =-.996698E+02
 curvature:   0.00 expect dE= 0.000E+00 dE for cont linesearch  0.000E+00
 trial: gam= 0.00000 g(F)=  0.161E+01 g(S)=  0.000E+00 ort = 0.000E+00 (trialstep = 0.100E+01)
 search vector abs. value=  0.161E+01
 bond charge predicted
       N       E                     dE             d eps       ncg     rms          rms(c)
DAV:   1    -0.990779371040E+02    0.59250E+00   -0.33930E+02   832   0.442E+01    0.379E+00
DAV:   2    -0.998426120612E+02   -0.76467E+00   -0.79495E+00   872   0.650E+00    0.367E+00
DAV:   3    -0.101501223598E+03   -0.16586E+01   -0.27095E+00  1160   0.951E+00    0.138E+01
DAV:   4    -0.999146101454E+02    0.15866E+01   -0.48228E+00  1208   0.984E+00    0.518E+00
DAV:   5    -0.998200135907E+02    0.94597E-01   -0.24282E-01   920   0.130E+00    0.294E+00
DAV:   6    -0.998376335023E+02   -0.17620E-01   -0.22433E-01   976   0.311E+00    0.363E+00
DAV:   7    -0.997890497424E+02    0.48584E-01   -0.18967E-01   968   0.305E+00    0.284E+00
DAV:   8    -0.997663250002E+02    0.22725E-01   -0.20018E-01   880   0.169E+00    0.135E+00
DAV:   9    -0.997642593389E+02    0.20657E-02   -0.59071E-02   920   0.872E-01    0.979E-01
DAV:  10    -0.997553917577E+02    0.88676E-02   -0.20057E-02   920   0.727E-01    0.630E-01
DAV:  11    -0.997543323556E+02    0.10594E-02   -0.13106E-02   968   0.501E-01    0.774E-01
DAV:  12    -0.997522650602E+02    0.20673E-02   -0.60977E-03   920   0.277E-01    0.448E-01
DAV:  13    -0.997518615895E+02    0.40347E-03   -0.16213E-03   952   0.135E-01    0.418E-01
DAV:  14    -0.997528727672E+02   -0.10112E-02   -0.12953E-03   624   0.132E-01    0.584E-01
DAV:  15    -0.997506456253E+02    0.22271E-02   -0.25259E-03   712   0.232E-01    0.276E-01
DAV:  16    -0.997504065064E+02    0.23912E-03   -0.27151E-04   576   0.705E-02    0.247E-01
DAV:  17    -0.997504170471E+02   -0.10541E-04   -0.58032E-05   472   0.373E-02
   2 F= -.99750417E+02 E0= -.99726655E+02  d E =-.806188E-01
 trial-energy change:   -0.080619  1 .order   -0.791123   -1.611537    0.029292
 step:   0.9821(harm=  0.9821)  dis= 0.06384  next Energy=  -100.461182 (dE=-0.791E+00)
 bond charge predicted
       N       E                     dE             d eps       ncg     rms          rms(c)
DAV:   1    -0.997524434221E+02   -0.20369E-02   -0.10967E-01   832   0.793E-01    0.196E-01
DAV:   2    -0.998238389227E+02   -0.71396E-01   -0.14519E-01  1288   0.200E+00    0.339E+00
DAV:   3    -0.997610264249E+02    0.62812E-01   -0.10017E-01  1176   0.118E+00    0.747E-01
DAV:   4    -0.997521227651E+02    0.89037E-02   -0.12926E-02  1104   0.759E-01    0.238E-01
DAV:   5    -0.997533315040E+02   -0.12087E-02   -0.19376E-03   904   0.238E-01    0.444E-01
DAV:   6    -0.997523734722E+02    0.95803E-03   -0.63362E-04   680   0.153E-01    0.201E-01
DAV:   7    -0.997522375093E+02    0.13596E-03   -0.16193E-03   576   0.193E-01    0.170E-01
DAV:   8    -0.997524367473E+02   -0.19924E-03   -0.28509E-04   536   0.721E-02    0.231E-01
DAV:   9    -0.997521902886E+02    0.24646E-03   -0.21849E-04   496   0.718E-02    0.929E-02
DAV:  10    -0.997521425229E+02    0.47766E-04   -0.19218E-04   512   0.690E-02
   3 F= -.99752143E+02 E0= -.99728332E+02  d E =-.823443E-01
 curvature:  -0.49 expect dE=-0.479E+01 dE for cont linesearch -0.203E-01
 trial: gam= 6.21601 g(F)=  0.976E+01 g(S)=  0.000E+00 ort =-0.258E+00 (trialstep = 0.233E-01)
 search vector abs. value=  0.688E+02
 bond charge predicted
       N       E                     dE             d eps       ncg     rms          rms(c)
DAV:   1    -0.999627670161E+02   -0.21058E+00   -0.64406E+00   832   0.628E+00    0.705E-01
DAV:   2    -0.999720222973E+02   -0.92553E-02   -0.12024E-01   888   0.967E-01    0.719E-01
DAV:   3    -0.100011105040E+03   -0.39083E-01   -0.19357E-01  1032   0.143E+00    0.299E+00
DAV:   4    -0.999744803716E+02    0.36625E-01   -0.88806E-02  1040   0.117E+00    0.834E-01
DAV:   5    -0.999832693405E+02   -0.87890E-02   -0.22116E-02  1064   0.875E-01    0.177E+00
DAV:   6    -0.999851641933E+02   -0.18949E-02   -0.21233E-02   952   0.578E-01    0.175E+00
DAV:   7    -0.999904267377E+02   -0.52625E-02   -0.23622E-01  1208   0.174E+00    0.190E+00
DAV:   8    -0.999701645758E+02    0.20262E-01   -0.40988E-02  1112   0.110E+00    0.303E-01
DAV:   9    -0.999692090411E+02    0.95553E-03   -0.29789E-03   864   0.205E-01    0.218E-01
DAV:  10    -0.999700567433E+02   -0.84770E-03   -0.23382E-03   608   0.169E-01    0.431E-01
DAV:  11    -0.999693033118E+02    0.75343E-03   -0.67456E-04   528   0.106E-01    0.249E-01
DAV:  12    -0.999689078187E+02    0.39549E-03   -0.49408E-04   536   0.108E-01    0.923E-02
DAV:  13    -0.999688753416E+02    0.32477E-04   -0.24272E-04   520   0.654E-02
   4 F= -.99968875E+02 E0= -.99944714E+02  d E =-.216733E+00
 ZBRENT: can't locate minimum, use default step
 trial-energy change:   -0.216733  1 .order   -0.185850   -0.190321   -0.181379
 step:   0.0933(harm=  0.4966)  dis= 0.04524  next Energy=  -101.777531 (dE=-0.203E+01)
 bond charge predicted
       N       E                     dE             d eps       ncg     rms          rms(c)
DAV:   1    -0.100336589770E+03   -0.36768E+00   -0.58006E+01   832   0.192E+01    0.233E+00
DAV:   2    -0.100448579032E+03   -0.11199E+00   -0.13164E+00   896   0.317E+00    0.224E+00
DAV:   3    -0.101080407364E+03   -0.63183E+00   -0.16776E+00  1032   0.560E+00    0.985E+00
DAV:   4    -0.100525601332E+03    0.55481E+00   -0.12018E+00  1000   0.414E+00    0.465E+00
DAV:   5    -0.100668932271E+03   -0.14333E+00   -0.21813E-01  1024   0.298E+00    0.709E+00
DAV:   6    -0.100602661624E+03    0.66271E-01   -0.11125E-01   952   0.101E+00    0.645E+00
DAV:   7    -0.100447867645E+03    0.15479E+00   -0.55716E-01  1176   0.249E+00    0.196E+00
DAV:   8    -0.100426739107E+03    0.21129E-01   -0.91834E-02   928   0.123E+00    0.170E+00
DAV:   9    -0.100434918385E+03   -0.81793E-02   -0.91574E-02   944   0.125E+00    0.208E+00
DAV:  10    -0.100426605940E+03    0.83124E-02   -0.16121E-02   904   0.495E-01    0.123E+00
DAV:  11    -0.100419634544E+03    0.69714E-02   -0.20867E-02  1000   0.851E-01    0.892E-01
DAV:  12    -0.100416200087E+03    0.34345E-02   -0.91447E-03   896   0.443E-01    0.626E-01
DAV:  13    -0.100415915621E+03    0.28447E-03   -0.95578E-04   944   0.162E-01    0.631E-01
DAV:  14    -0.100414911847E+03    0.10038E-02   -0.18446E-03   768   0.193E-01    0.464E-01
DAV:  15    -0.100414324455E+03    0.58739E-03   -0.65485E-04   808   0.953E-02    0.373E-01
DAV:  16    -0.100413750587E+03    0.57387E-03   -0.66989E-04   848   0.110E-01    0.258E-01
DAV:  17    -0.100413613743E+03    0.13684E-03   -0.12428E-04   480   0.523E-02    0.204E-01
DAV:  18    -0.100413567639E+03    0.46104E-04   -0.14890E-04   480   0.460E-02
   5 F= -.10041357E+03 E0= -.10038890E+03  d E =-.661425E+00
 curvature:  -0.57 expect dE=-0.911E+00 dE for cont linesearch -0.117E+00
 ZBRENT: increasing intervall
 opt :   0.2333  next Energy=  -100.374240 (dE=-0.622E+00)
 bond charge predicted
       N       E                     dE             d eps       ncg     rms          rms(c)
DAV:   1    -0.992200464707E+02    0.11936E+01   -0.23426E+02   832   0.405E+01    0.524E+00
DAV:   2    -0.101253709513E+03   -0.20337E+01   -0.99264E+00   944   0.114E+01    0.132E+01
DAV:   3    -0.101618574753E+03   -0.36487E+00   -0.13596E+01  1032   0.157E+01    0.152E+01
DAV:   4    -0.100205576871E+03    0.14130E+01   -0.17331E+00   960   0.588E+00    0.941E+00
DAV:   5    -0.100137579839E+03    0.67997E-01   -0.17097E-01   968   0.168E+00    0.925E+00
DAV:   6    -0.101388568617E+03   -0.12510E+01   -0.10903E+00  1040   0.509E+00    0.142E+01
DAV:   7    -0.998032089238E+02    0.15854E+01   -0.39621E+00  1176   0.763E+00    0.396E+00
DAV:   8    -0.998022039873E+02    0.10049E-02   -0.10719E+00   912   0.280E+00    0.477E+00
DAV:   9    -0.997465834945E+02    0.55620E-01   -0.33690E-01   912   0.188E+00    0.233E+00
DAV:  10    -0.997285165595E+02    0.18067E-01   -0.10647E-01   944   0.121E+00    0.271E+00
DAV:  11    -0.997125670542E+02    0.15950E-01   -0.11333E-01   928   0.947E-01    0.173E+00
DAV:  12    -0.996918281545E+02    0.20739E-01   -0.57064E-02   920   0.872E-01    0.160E+00
DAV:  13    -0.996835190789E+02    0.83091E-02   -0.66574E-03   944   0.364E-01    0.125E+00
DAV:  14    -0.996787276874E+02    0.47914E-02   -0.22921E-03   952   0.207E-01    0.103E+00
DAV:  15    -0.996753992248E+02    0.33285E-02   -0.35159E-03   920   0.201E-01    0.720E-01
DAV:  16    -0.996739602346E+02    0.14390E-02   -0.10255E-02   936   0.284E-01    0.716E-01
DAV:  17    -0.996721308558E+02    0.18294E-02   -0.39535E-03   896   0.208E-01    0.364E-01
DAV:  18    -0.996714203157E+02    0.71054E-03   -0.88146E-04   800   0.139E-01    0.278E-01
DAV:  19    -0.996712567563E+02    0.16356E-03   -0.20060E-04   504   0.558E-02    0.255E-01
DAV:  20    -0.996712123527E+02    0.44404E-04   -0.40453E-05   440   0.180E-02
   6 F= -.99671212E+02 E0= -.99645206E+02  d E =0.809302E-01
 curvature:   0.19 expect dE= 0.102E+01 dE for cont linesearch  0.355E+00
 ZBRENT: bracketing found
 ZBRENT: interpolating
 opt :   0.1283  next Energy=  -100.479087 (dE=-0.727E+00)
 bond charge predicted
       N       E                     dE             d eps       ncg     rms          rms(c)
DAV:   1    -0.100175697720E+03   -0.50444E+00   -0.13252E+02   832   0.341E+01    0.433E+00
DAV:   2    -0.101333316654E+03   -0.11576E+01   -0.59795E+00   936   0.850E+00    0.935E+00
DAV:   3    -0.103600895392E+03   -0.22676E+01   -0.14042E+01  1064   0.171E+01    0.169E+01
DAV:   4    -0.100830214280E+03    0.27707E+01   -0.25285E+00  1064   0.957E+00    0.690E+00
DAV:   5    -0.100884642670E+03   -0.54428E-01   -0.61285E-01   952   0.363E+00    0.735E+00
DAV:   6    -0.100890196732E+03   -0.55541E-02   -0.32913E-01   928   0.260E+00    0.715E+00
DAV:   7    -0.100624937544E+03    0.26526E+00   -0.49529E-01   984   0.332E+00    0.511E+00
DAV:   8    -0.100592601373E+03    0.32336E-01   -0.44178E-01   928   0.204E+00    0.503E+00
DAV:   9    -0.100665386154E+03   -0.72785E-01   -0.19865E-01   968   0.208E+00    0.499E+00
DAV:  10    -0.100516514226E+03    0.14887E+00   -0.31650E-01   968   0.188E+00    0.206E+00
DAV:  11    -0.100489339586E+03    0.27175E-01   -0.15880E-02   960   0.730E-01    0.172E+00
DAV:  12    -0.100486112495E+03    0.32271E-02   -0.61010E-03   904   0.283E-01    0.170E+00
DAV:  13    -0.100474296070E+03    0.11816E-01   -0.93157E-03   936   0.529E-01    0.148E+00
DAV:  14    -0.100463773707E+03    0.10522E-01   -0.99423E-03   944   0.456E-01    0.909E-01
DAV:  15    -0.100461091505E+03    0.26822E-02   -0.25868E-03   912   0.211E-01    0.686E-01
DAV:  16    -0.100461203243E+03   -0.11174E-03   -0.59416E-04   536   0.886E-02    0.735E-01
DAV:  17    -0.100460378986E+03    0.82426E-03   -0.18286E-03   912   0.203E-01    0.672E-01
DAV:  18    -0.100458972603E+03    0.14064E-02   -0.16381E-03   864   0.154E-01    0.424E-01
DAV:  19    -0.100459337727E+03   -0.36512E-03   -0.38347E-04   520   0.831E-02    0.499E-01
DAV:  20    -0.100458752022E+03    0.58570E-03   -0.46474E-04   560   0.716E-02    0.356E-01
DAV:  21    -0.100458018683E+03    0.73334E-03   -0.17993E-03   608   0.166E-01    0.183E-01
DAV:  22    -0.100457999713E+03    0.18971E-04   -0.23684E-04   496   0.458E-02
   7 F= -.10045800E+03 E0= -.10043245E+03  d E =-.705857E+00
 curvature:  -0.04 expect dE=-0.797E-01 dE for cont linesearch -0.256E-01
 ZBRENT: interpolating
 opt :   0.1055  next Energy=  -100.436348 (dE=-0.684E+00)
 bond charge predicted
       N       E                     dE             d eps       ncg     rms          rms(c)
DAV:   1    -0.100450573850E+03    0.74448E-02   -0.63173E+00   832   0.697E+00    0.102E+00
DAV:   2    -0.100520146897E+03   -0.69573E-01   -0.36961E-01   912   0.199E+00    0.334E+00
DAV:   3    -0.100499564500E+03    0.20582E-01   -0.46296E-01   984   0.265E+00    0.272E+00
DAV:   4    -0.100489044621E+03    0.10520E-01   -0.62845E-02   936   0.111E+00    0.185E+00
DAV:   5    -0.100474512618E+03    0.14532E-01   -0.19622E-02   920   0.707E-01    0.140E+00
DAV:   6    -0.100472782388E+03    0.17302E-02   -0.40016E-02  1080   0.120E+00    0.147E+00
DAV:   7    -0.100513331953E+03   -0.40550E-01   -0.11993E-01  1160   0.186E+00    0.284E+00
DAV:   8    -0.100463052281E+03    0.50280E-01   -0.13330E-01  1176   0.165E+00    0.516E-01
DAV:   9    -0.100461172751E+03    0.18795E-02   -0.67340E-03   880   0.280E-01    0.438E-01
DAV:  10    -0.100461077258E+03    0.95493E-04   -0.62470E-04   680   0.978E-02
   8 F= -.10046108E+03 E0= -.10043694E+03  d E =-.708935E+00
 curvature:  -0.03 expect dE=-0.316E-01 dE for cont linesearch -0.523E-02
 ZBRENT: bisectioning
 opt :   0.1169  next Energy=  -100.497494 (dE=-0.745E+00)
 bond charge predicted
       N       E                     dE             d eps       ncg     rms          rms(c)
DAV:   1    -0.100491275859E+03   -0.30103E-01   -0.15816E+00   832   0.340E+00    0.590E-01
DAV:   2    -0.100771743995E+03   -0.28047E+00   -0.89643E-01  1096   0.346E+00    0.689E+00
DAV:   3    -0.100501941569E+03    0.26980E+00   -0.93996E-01  1176   0.345E+00    0.101E+00
DAV:   4    -0.100493627494E+03    0.83141E-02   -0.14213E-02   928   0.513E-01    0.551E-01
DAV:   5    -0.100496124965E+03   -0.24975E-02   -0.24796E-02   912   0.567E-01    0.104E+00
DAV:   6    -0.100497062768E+03   -0.93780E-03   -0.27439E-03   912   0.330E-01    0.993E-01
DAV:   7    -0.100495153855E+03    0.19089E-02   -0.39208E-02  1096   0.753E-01    0.718E-01
DAV:   8    -0.100492483407E+03    0.26704E-02   -0.10554E-02  1000   0.484E-01    0.297E-01
DAV:   9    -0.100493588172E+03   -0.11048E-02   -0.25001E-03   896   0.184E-01    0.552E-01
DAV:  10    -0.100493247047E+03    0.34112E-03   -0.67264E-04   584   0.848E-02    0.446E-01
DAV:  11    -0.100492097558E+03    0.11495E-02   -0.23779E-03   560   0.188E-01    0.102E-01
DAV:  12    -0.100492073535E+03    0.24023E-04   -0.25875E-04   560   0.793E-02
   9 F= -.10049207E+03 E0= -.10046677E+03  d E =-.739931E+00
 curvature:  -0.22 expect dE=-0.331E+00 dE for cont linesearch -0.156E-01
 ZBRENT: bisectioning
 opt :   0.1226  next Energy=  -100.503012 (dE=-0.751E+00)
 bond charge predicted
       N       E                     dE             d eps       ncg     rms          rms(c)
DAV:   1    -0.100489831044E+03    0.22665E-02   -0.39594E-01   832   0.172E+00    0.349E-01
DAV:   2    -0.100499689743E+03   -0.98587E-02   -0.32867E-02   912   0.697E-01    0.149E+00
DAV:   3    -0.100492215908E+03    0.74738E-02   -0.41231E-02  1000   0.735E-01    0.553E-01
DAV:   4    -0.100495203453E+03   -0.29875E-02   -0.48702E-02  1000   0.594E-01    0.112E+00
DAV:   5    -0.100496170421E+03   -0.96697E-03   -0.19335E-03   936   0.234E-01    0.108E+00
DAV:   6    -0.100490706359E+03    0.54641E-02   -0.28807E-02   984   0.488E-01    0.190E-01
DAV:   7    -0.100492551502E+03   -0.18451E-02   -0.37842E-03   912   0.324E-01    0.573E-01
DAV:   8    -0.100490614648E+03    0.19369E-02   -0.64142E-03   920   0.372E-01    0.154E-01
DAV:   9    -0.100490432759E+03    0.18189E-03   -0.27010E-04   544   0.799E-02    0.396E-02
DAV:  10    -0.100490494719E+03   -0.61960E-04   -0.19582E-04   504   0.507E-02
  10 F= -.10049049E+03 E0= -.10046533E+03  d E =-.738352E+00
 curvature:  -0.15 expect dE=-0.311E+00 dE for cont linesearch -0.252E-01
 ZBRENT: interpolating
 opt :   0.1192  next Energy=  -100.494575 (dE=-0.742E+00)
 bond charge predicted
       N       E                     dE             d eps       ncg     rms          rms(c)
DAV:   1    -0.100495137881E+03   -0.47051E-02   -0.14398E-01   832   0.105E+00    0.187E-01
DAV:   2    -0.100495470063E+03   -0.33218E-03   -0.34839E-03   904   0.175E-01    0.245E-01
DAV:   3    -0.100496590001E+03   -0.11199E-02   -0.73785E-03   752   0.267E-01    0.525E-01
DAV:   4    -0.100497909532E+03   -0.13195E-02   -0.19918E-02   896   0.519E-01    0.697E-01
DAV:   5    -0.100496187687E+03    0.17218E-02   -0.63727E-03   920   0.403E-01    0.340E-01
DAV:   6    -0.100496008270E+03    0.17942E-03   -0.30653E-03   776   0.229E-01    0.336E-01
DAV:   7    -0.100495387417E+03    0.62085E-03   -0.15885E-03   656   0.165E-01    0.108E-01
DAV:   8    -0.100495352259E+03    0.35157E-04   -0.86949E-05   464   0.477E-02
  11 F= -.10049535E+03 E0= -.10047018E+03  d E =-.743210E+00
 curvature:  -0.02 expect dE=-0.254E-01 dE for cont linesearch -0.526E-04
 trial: gam=-0.03642 g(F)=  0.166E+01 g(S)=  0.000E+00 ort = 0.486E+00 (trialstep = 0.425E-01)
 search vector abs. value=  0.171E+01
 bond charge predicted
       N       E                     dE             d eps       ncg     rms          rms(c)
DAV:   1    -0.100537464013E+03   -0.42077E-01   -0.57912E-01   832   0.202E+00    0.491E-01
DAV:   2    -0.100556602321E+03   -0.19138E-01   -0.77537E-02   928   0.943E-01    0.202E+00
DAV:   3    -0.100541836562E+03    0.14766E-01   -0.10139E-01  1072   0.108E+00    0.850E-01
DAV:   4    -0.100545906614E+03   -0.40701E-02   -0.28861E-02   928   0.668E-01    0.104E+00
DAV:   5    -0.100540045728E+03    0.58609E-02   -0.89407E-03   936   0.685E-01    0.707E-01
DAV:   6    -0.100545160332E+03   -0.51146E-02   -0.97053E-03   952   0.430E-01    0.113E+00
DAV:   7    -0.100539832447E+03    0.53279E-02   -0.61471E-02  1040   0.797E-01    0.492E-01
DAV:   8    -0.100538359146E+03    0.14733E-02   -0.75331E-03   800   0.322E-01    0.248E-01
DAV:   9    -0.100538248454E+03    0.11069E-03   -0.17259E-04   528   0.527E-02    0.228E-01
DAV:  10    -0.100537998120E+03    0.25033E-03   -0.32014E-04   488   0.801E-02    0.752E-02
DAV:  11    -0.100537985930E+03    0.12190E-04   -0.21513E-04   512   0.567E-02
  12 F= -.10053799E+03 E0= -.10051253E+03  d E =-.426337E-01
 trial-energy change:   -0.042634  1 .order   -0.043611   -0.069596   -0.017625
 step:   0.0596(harm=  0.0569)  dis= 0.00995  next Energy=  -100.541473 (dE=-0.461E-01)
 bond charge predicted
       N       E                     dE             d eps       ncg     rms          rms(c)
DAV:   1    -0.100542044428E+03   -0.40463E-02   -0.94773E-02   832   0.827E-01    0.165E-01
DAV:   2    -0.100544254716E+03   -0.22103E-02   -0.11105E-02   896   0.317E-01    0.710E-01
DAV:   3    -0.100542631818E+03    0.16229E-02   -0.16444E-02   856   0.375E-01    0.304E-01
DAV:   4    -0.100543301250E+03   -0.66943E-03   -0.95582E-03   712   0.323E-01    0.462E-01
DAV:   5    -0.100542279293E+03    0.10220E-02   -0.64765E-03   664   0.241E-01    0.144E-01
DAV:   6    -0.100542629091E+03   -0.34980E-03   -0.59436E-04   680   0.163E-01    0.256E-01
DAV:   7    -0.100542159819E+03    0.46927E-03   -0.56182E-04   640   0.171E-01    0.560E-02
DAV:   8    -0.100542170963E+03   -0.11143E-04   -0.17099E-04   504   0.471E-02
  13 F= -.10054217E+03 E0= -.10051674E+03  d E =-.468187E-01
 curvature:  -0.03 expect dE=-0.193E-01 dE for cont linesearch -0.466E-03
 trial: gam= 0.25925 g(F)=  0.672E+00 g(S)=  0.000E+00 ort = 0.167E+00 (trialstep = 0.459E-01)
 search vector abs. value=  0.874E+00
 bond charge predicted
       N       E                     dE             d eps       ncg     rms          rms(c)
DAV:   1    -0.100575871153E+03   -0.33711E-01   -0.23749E-01   832   0.126E+00    0.279E-01
DAV:   2    -0.100615341072E+03   -0.39470E-01   -0.90626E-02  1192   0.131E+00    0.265E+00
DAV:   3    -0.100577784439E+03    0.37557E-01   -0.12158E-01  1152   0.125E+00    0.384E-01
DAV:   4    -0.100577779974E+03    0.44657E-05   -0.83923E-03   944   0.351E-01    0.649E-01
DAV:   5    -0.100578171719E+03   -0.39175E-03   -0.13084E-03   912   0.195E-01    0.617E-01
DAV:   6    -0.100576938009E+03    0.12337E-02   -0.12069E-02   888   0.435E-01    0.357E-01
DAV:   7    -0.100576449450E+03    0.48856E-03   -0.13257E-03   832   0.230E-01    0.294E-01
DAV:   8    -0.100578331196E+03   -0.18817E-02   -0.22637E-03   744   0.258E-01    0.619E-01
DAV:   9    -0.100576324043E+03    0.20072E-02   -0.25531E-03   584   0.209E-01    0.210E-01
DAV:  10    -0.100576018276E+03    0.30577E-03   -0.38697E-04   584   0.108E-01    0.554E-02
DAV:  11    -0.100576031851E+03   -0.13574E-04   -0.71592E-05   464   0.296E-02
  14 F= -.10057603E+03 E0= -.10055046E+03  d E =-.338609E-01
 ZBRENT: can't locate minimum, use default step
 trial-energy change:   -0.033861  1 .order   -0.033412   -0.032857   -0.033967
 step:   0.1837(harm=  0.1837)  dis= 0.01276  next Energy=  -100.647237 (dE=-0.105E+00)
 bond charge predicted
       N       E                     dE             d eps       ncg     rms          rms(c)
DAV:   1    -0.100644543705E+03   -0.68525E-01   -0.21342E+00   832   0.379E+00    0.454E-01
DAV:   2    -0.100648740815E+03   -0.41971E-02   -0.39621E-02   920   0.686E-01    0.658E-01
DAV:   3    -0.100667703109E+03   -0.18962E-01   -0.14340E-01  1032   0.106E+00    0.217E+00
DAV:   4    -0.100652366827E+03    0.15336E-01   -0.56818E-02  1056   0.105E+00    0.819E-01
DAV:   5    -0.100649088274E+03    0.32786E-02   -0.15007E-02  1016   0.590E-01    0.773E-01
DAV:   6    -0.100647210583E+03    0.18777E-02   -0.10021E-02   920   0.280E-01    0.265E-01
DAV:   7    -0.100654281242E+03   -0.70707E-02   -0.20895E-02  1032   0.705E-01    0.110E+00
DAV:   8    -0.100647285813E+03    0.69954E-02   -0.15196E-02  1000   0.464E-01    0.213E-01
DAV:   9    -0.100646811749E+03    0.47406E-03   -0.15512E-03   760   0.219E-01    0.150E-01
DAV:  10    -0.100646698676E+03    0.11307E-03   -0.44021E-04   616   0.967E-02    0.427E-02
DAV:  11    -0.100646693885E+03    0.47902E-05   -0.62612E-05   464   0.329E-02
  15 F= -.10064669E+03 E0= -.10062049E+03  d E =-.104523E+00
 curvature:  -0.17 expect dE=-0.426E-01 dE for cont linesearch -0.162E-01
 ZBRENT: increasing intervall
 opt :   0.4592  next Energy=  -100.601413 (dE=-0.592E-01)
 bond charge predicted
       N       E                     dE             d eps       ncg     rms          rms(c)
DAV:   1    -0.100586381222E+03    0.60317E-01   -0.85134E+00   832   0.757E+00    0.107E+00
DAV:   2    -0.100622678311E+03   -0.36297E-01   -0.20961E-01   912   0.167E+00    0.223E+00
DAV:   3    -0.100659034823E+03   -0.36357E-01   -0.46447E-01  1000   0.241E+00    0.357E+00
DAV:   4    -0.100618177605E+03    0.40857E-01   -0.10669E-01   984   0.185E+00    0.186E+00
DAV:   5    -0.100610706681E+03    0.74709E-02   -0.26162E-02   976   0.124E+00    0.179E+00
DAV:   6    -0.100596749535E+03    0.13957E-01   -0.38247E-02  1008   0.844E-01    0.609E-01
DAV:   7    -0.100641126707E+03   -0.44377E-01   -0.78968E-02  1192   0.149E+00    0.250E+00
DAV:   8    -0.100598749988E+03    0.42377E-01   -0.92135E-02  1024   0.125E+00    0.554E-01
DAV:   9    -0.100595777377E+03    0.29726E-02   -0.51340E-03  1016   0.329E-01    0.149E-01
DAV:  10    -0.100595779134E+03   -0.17578E-05   -0.12681E-03   912   0.110E-01    0.212E-01
DAV:  11    -0.100595743821E+03    0.35313E-04   -0.31420E-04   568   0.617E-02
  16 F= -.10059574E+03 E0= -.10056895E+03  d E =-.535729E-01
 curvature:   0.48 expect dE= 0.534E+00 dE for cont linesearch  0.440E-01
 ZBRENT: bracketing found
 ZBRENT: interpolating
 opt :   0.3224  next Energy=  -100.615150 (dE=-0.730E-01)
 bond charge predicted
       N       E                     dE             d eps       ncg     rms          rms(c)
DAV:   1    -0.100639019036E+03   -0.43240E-01   -0.21205E+00   832   0.378E+00    0.592E-01
DAV:   2    -0.100642503726E+03   -0.34847E-02   -0.40632E-02   904   0.665E-01    0.683E-01
DAV:   3    -0.100679960507E+03   -0.37457E-01   -0.15998E-01  1096   0.143E+00    0.262E+00
DAV:   4    -0.100644732093E+03    0.35228E-01   -0.89828E-02  1056   0.104E+00    0.767E-01
DAV:   5    -0.100642739201E+03    0.19929E-02   -0.55816E-03   952   0.475E-01    0.584E-01
DAV:   6    -0.100647657706E+03   -0.49185E-02   -0.14853E-02   984   0.817E-01    0.101E+00
DAV:   7    -0.100645359040E+03    0.22987E-02   -0.30210E-02  1072   0.962E-01    0.782E-01
DAV:   8    -0.100641406915E+03    0.39521E-02   -0.80378E-03   944   0.372E-01    0.198E-01
DAV:   9    -0.100641105285E+03    0.30163E-03   -0.37928E-04   560   0.877E-02    0.136E-01
DAV:  10    -0.100641054911E+03    0.50374E-04   -0.11599E-04   488   0.387E-02
  17 F= -.10064105E+03 E0= -.10061434E+03  d E =-.988839E-01
 curvature:  -0.21 expect dE=-0.202E+00 dE for cont linesearch -0.210E-01
 ZBRENT: interpolating
 opt :   0.2521  next Energy=  -100.656539 (dE=-0.114E+00)
 bond charge predicted
       N       E                     dE             d eps       ncg     rms          rms(c)
DAV:   1    -0.100656369386E+03   -0.15264E-01   -0.56020E-01   832   0.194E+00    0.379E-01
DAV:   2    -0.100762424864E+03   -0.10606E+00   -0.39179E-01  1168   0.207E+00    0.439E+00
DAV:   3    -0.100661385996E+03    0.10104E+00   -0.31786E-01  1216   0.212E+00    0.624E-01
DAV:   4    -0.100659487349E+03    0.18986E-02   -0.54696E-03   936   0.430E-01    0.677E-01
DAV:   5    -0.100658645717E+03    0.84163E-03   -0.22590E-03   928   0.307E-01    0.564E-01
DAV:   6    -0.100660236204E+03   -0.15905E-02   -0.34140E-02  1024   0.604E-01    0.869E-01
DAV:   7    -0.100659435214E+03    0.80099E-03   -0.17498E-03   904   0.150E-01    0.614E-01
DAV:   8    -0.100657337676E+03    0.20975E-02   -0.13478E-02   856   0.486E-01    0.276E-01
DAV:   9    -0.100657002630E+03    0.33505E-03   -0.29612E-03   672   0.203E-01    0.181E-01
DAV:  10    -0.100656876912E+03    0.12572E-03   -0.28787E-04   472   0.453E-02    0.104E-01
DAV:  11    -0.100656871454E+03    0.54579E-05   -0.35777E-05   472   0.289E-02
  18 F= -.10065687E+03 E0= -.10063060E+03  d E =-.114700E+00
 curvature:  -0.10 expect dE=-0.407E-01 dE for cont linesearch -0.402E-03
 trial: gam= 0.82328 g(F)=  0.413E+00 g(S)=  0.000E+00 ort =-0.597E-01 (trialstep = 0.840E-01)
 search vector abs. value=  0.907E+00
 bond charge predicted
       N       E                     dE             d eps       ncg     rms          rms(c)
DAV:   1    -0.100655208889E+03    0.16680E-02   -0.12623E+00   832   0.305E+00    0.275E-01
DAV:   2    -0.100670378203E+03   -0.15169E-01   -0.56016E-02   888   0.919E-01    0.160E+00
DAV:   3    -0.100658614155E+03    0.11764E-01   -0.57628E-02   960   0.860E-01    0.533E-01
DAV:   4    -0.100658747028E+03   -0.13287E-03   -0.25568E-03   968   0.246E-01    0.645E-01
DAV:   5    -0.100658176256E+03    0.57077E-03   -0.14708E-03   896   0.163E-01    0.509E-01
DAV:   6    -0.100657445660E+03    0.73060E-03   -0.93911E-03   944   0.361E-01    0.366E-01
DAV:   7    -0.100657089092E+03    0.35657E-03   -0.12861E-03   904   0.156E-01    0.239E-01
DAV:   8    -0.100657031897E+03    0.57195E-04   -0.80275E-04   744   0.142E-01
  19 F= -.10065703E+03 E0= -.10063014E+03  d E =-.160443E-03
 trial-energy change:   -0.000160  1 .order   -0.002819   -0.030544    0.024906
 step:   0.0402(harm=  0.0463)  dis= 0.00388  next Energy=  -100.663895 (dE=-0.702E-02)
 bond charge predicted
       N       E                     dE             d eps       ncg     rms          rms(c)
DAV:   1    -0.100664490387E+03   -0.74013E-02   -0.34613E-01   832   0.161E+00    0.363E-01
DAV:   2    -0.100940961327E+03   -0.27647E+00   -0.64750E-01  1216   0.353E+00    0.620E+00
DAV:   3    -0.100675254742E+03    0.26571E+00   -0.78379E-01  1280   0.333E+00    0.638E-01
DAV:   4    -0.100667662576E+03    0.75922E-02   -0.21646E-02   928   0.521E-01    0.748E-01
DAV:   5    -0.100666438025E+03    0.12246E-02   -0.52810E-03   920   0.247E-01    0.456E-01
DAV:   6    -0.100664607299E+03    0.18307E-02   -0.40757E-03   808   0.332E-01    0.224E-01
DAV:   7    -0.100664868739E+03   -0.26144E-03   -0.87169E-04   792   0.135E-01    0.318E-01
DAV:   8    -0.100664593286E+03    0.27545E-03   -0.49267E-04   552   0.719E-02    0.199E-01
DAV:   9    -0.100664387596E+03    0.20569E-03   -0.42434E-04   512   0.846E-02    0.823E-02
DAV:  10    -0.100664395409E+03   -0.78130E-05   -0.25157E-04   528   0.586E-02
  20 F= -.10066440E+03 E0= -.10063790E+03  d E =-.752396E-02
 curvature:  -0.06 expect dE=-0.887E-02 dE for cont linesearch -0.446E-06
 trial: gam= 0.14537 g(F)=  0.158E+00 g(S)=  0.000E+00 ort = 0.268E-02 (trialstep = 0.752E-01)
 search vector abs. value=  0.178E+00
 bond charge predicted
       N       E                     dE             d eps       ncg     rms          rms(c)
DAV:   1    -0.100673796553E+03   -0.94090E-02   -0.23046E-01   832   0.126E+00    0.179E-01
DAV:   2    -0.100703631874E+03   -0.29835E-01   -0.11732E-01  1048   0.108E+00    0.247E+00
DAV:   3    -0.100675636607E+03    0.27995E-01   -0.82261E-02  1072   0.104E+00    0.237E-01
DAV:   4    -0.100674289477E+03    0.13471E-02   -0.14429E-03   928   0.145E-01    0.244E-01
DAV:   5    -0.100674223262E+03    0.66215E-04   -0.38968E-04   608   0.108E-01
  21 F= -.10067422E+03 E0= -.10064781E+03  d E =-.982785E-02
 trial-energy change:   -0.009828  1 .order   -0.009707   -0.011898   -0.007515
 step:   0.2043(harm=  0.2043)  dis= 0.01074  next Energy=  -100.680546 (dE=-0.162E-01)
 bond charge predicted
       N       E                     dE             d eps       ncg     rms          rms(c)
DAV:   1    -0.100679596622E+03   -0.53071E-02   -0.68033E-01   832   0.216E+00    0.365E-01
DAV:   2    -0.100707539206E+03   -0.27943E-01   -0.98339E-02   944   0.117E+00    0.208E+00
DAV:   3    -0.100700906856E+03    0.66324E-02   -0.14236E-01  1008   0.158E+00    0.208E+00
DAV:   4    -0.100681113829E+03    0.19793E-01   -0.27151E-02   984   0.855E-01    0.308E-01
DAV:   5    -0.100681270142E+03   -0.15631E-03   -0.51640E-03   912   0.227E-01    0.540E-01
DAV:   6    -0.100681254071E+03    0.16071E-04   -0.18742E-02   896   0.400E-01    0.434E-01
DAV:   7    -0.100681378155E+03   -0.12408E-03   -0.14307E-02   936   0.448E-01    0.467E-01
DAV:   8    -0.100680146060E+03    0.12321E-02   -0.59013E-03   832   0.258E-01    0.928E-02
DAV:   9    -0.100680083791E+03    0.62269E-04   -0.23977E-04   512   0.540E-02
  22 F= -.10068008E+03 E0= -.10065351E+03  d E =-.156884E-01
 curvature:  -0.11 expect dE=-0.357E-01 dE for cont linesearch -0.967E-04
 trial: gam= 1.91403 g(F)=  0.311E+00 g(S)=  0.000E+00 ort = 0.122E-01 (trialstep = 0.178E-01)
 search vector abs. value=  0.101E+01
 bond charge predicted
       N       E                     dE             d eps       ncg     rms          rms(c)
DAV:   1    -0.100685258476E+03   -0.51124E-02   -0.82090E-02   832   0.745E-01    0.557E-02
DAV:   2    -0.100685516412E+03   -0.25794E-03   -0.18179E-03   888   0.144E-01    0.199E-01
DAV:   3    -0.100685954335E+03   -0.43792E-03   -0.55759E-03   608   0.200E-01    0.359E-01
DAV:   4    -0.100685423916E+03    0.53042E-03   -0.26279E-03   552   0.170E-01    0.848E-02
DAV:   5    -0.100685357183E+03    0.66733E-04   -0.47429E-05   472   0.498E-02
  23 F= -.10068536E+03 E0= -.10065872E+03  d E =-.527339E-02
 ZBRENT: can't locate minimum, use default step
 trial-energy change:   -0.005273  1 .order   -0.005494   -0.005954   -0.005034
 step:   0.0712(harm=  0.1152)  dis= 0.01037  next Energy=  -100.699357 (dE=-0.193E-01)
 bond charge predicted
       N       E                     dE             d eps       ncg     rms          rms(c)
DAV:   1    -0.100694828925E+03   -0.94050E-02   -0.74343E-01   832   0.224E+00    0.186E-01
DAV:   2    -0.100728127724E+03   -0.33299E-01   -0.81939E-02   904   0.123E+00    0.239E+00
DAV:   3    -0.100696893164E+03    0.31235E-01   -0.92897E-02   968   0.113E+00    0.257E-01
DAV:   4    -0.100696895125E+03   -0.19606E-05   -0.44895E-03  1000   0.293E-01    0.506E-01
DAV:   5    -0.100696241057E+03    0.65407E-03   -0.15100E-03   800   0.126E-01    0.310E-01
DAV:   6    -0.100695821918E+03    0.41914E-03   -0.20429E-03   704   0.265E-01    0.212E-01
DAV:   7    -0.100696389514E+03   -0.56760E-03   -0.14540E-03   720   0.149E-01    0.402E-01
DAV:   8    -0.100695627693E+03    0.76182E-03   -0.16727E-03   688   0.143E-01    0.117E-01
DAV:   9    -0.100695559932E+03    0.67762E-04   -0.27768E-04   528   0.687E-02
  24 F= -.10069556E+03 E0= -.10066879E+03  d E =-.154761E-01
 curvature:  -0.14 expect dE=-0.350E-01 dE for cont linesearch -0.114E-02
 ZBRENT: extrapolating
 opt :   0.0966  next Energy=  -100.696718 (dE=-0.166E-01)
 bond charge predicted
       N       E                     dE             d eps       ncg     rms          rms(c)
DAV:   1    -0.100696824996E+03   -0.11973E-02   -0.16720E-01   832   0.107E+00    0.122E-01
DAV:   2    -0.100727564728E+03   -0.30740E-01   -0.68656E-02  1120   0.113E+00    0.234E+00
DAV:   3    -0.100698045620E+03    0.29519E-01   -0.83107E-02  1120   0.105E+00    0.146E-01
DAV:   4    -0.100697464719E+03    0.58090E-03   -0.15641E-03   960   0.216E-01    0.278E-01
DAV:   5    -0.100697164840E+03    0.29988E-03   -0.34442E-04   592   0.117E-01    0.180E-01
DAV:   6    -0.100697010961E+03    0.15388E-03   -0.10589E-03   520   0.945E-02    0.769E-02
DAV:   7    -0.100697065937E+03   -0.54976E-04   -0.12771E-04   488   0.567E-02
  25 F= -.10069707E+03 E0= -.10067031E+03  d E =-.169821E-01
 curvature:  -0.14 expect dE=-0.534E-01 dE for cont linesearch -0.235E-04
 trial: gam= 1.32119 g(F)=  0.380E+00 g(S)=  0.000E+00 ort = 0.130E-01 (trialstep = 0.156E-01)
 search vector abs. value=  0.218E+01
 bond charge predicted
       N       E                     dE             d eps       ncg     rms          rms(c)
DAV:   1    -0.100703282815E+03   -0.62719E-02   -0.13900E-01   832   0.934E-01    0.934E-02
DAV:   2    -0.100712825758E+03   -0.95429E-02   -0.29715E-02  1000   0.624E-01    0.143E+00
DAV:   3    -0.100703993098E+03    0.88327E-02   -0.33190E-02   992   0.586E-01    0.201E-01
DAV:   4    -0.100703507098E+03    0.48600E-03   -0.14660E-03   792   0.133E-01    0.139E-01
DAV:   5    -0.100703434051E+03    0.73047E-04   -0.47760E-04   520   0.705E-02
  26 F= -.10070343E+03 E0= -.10067673E+03  d E =-.636811E-02
 ZBRENT: can't locate minimum, use default step
 trial-energy change:   -0.006368  1 .order   -0.005969   -0.006181   -0.005758
 step:   0.0622(harm=  0.2278)  dis= 0.01387  next Energy=  -100.742312 (dE=-0.452E-01)
 bond charge predicted
       N       E                     dE             d eps       ncg     rms          rms(c)
DAV:   1    -0.100717531403E+03   -0.14024E-01   -0.12517E+00   832   0.280E+00    0.177E-01
DAV:   2    -0.100729140632E+03   -0.11609E-01   -0.49173E-02   904   0.783E-01    0.150E+00
DAV:   3    -0.100719581005E+03    0.95596E-02   -0.35542E-02   944   0.612E-01    0.233E-01
DAV:   4    -0.100719096480E+03    0.48452E-03   -0.15807E-03   960   0.175E-01    0.248E-01
DAV:   5    -0.100718880685E+03    0.21580E-03   -0.61204E-04   616   0.119E-01    0.167E-01
DAV:   6    -0.100718859795E+03    0.20890E-04   -0.18420E-03   664   0.118E-01    0.206E-01
DAV:   7    -0.100720653010E+03   -0.17932E-02   -0.31318E-03   864   0.290E-01    0.589E-01
DAV:   8    -0.100719112411E+03    0.15406E-02   -0.13011E-02   920   0.407E-01    0.240E-01
DAV:   9    -0.100718749296E+03    0.36311E-03   -0.83068E-04   528   0.117E-01    0.444E-02
DAV:  10    -0.100718744553E+03    0.47430E-05   -0.16574E-04   488   0.554E-02
  27 F= -.10071874E+03 E0= -.10069205E+03  d E =-.216786E-01
 curvature:  -0.24 expect dE=-0.781E-01 dE for cont linesearch -0.638E-02
 ZBRENT: increasing intervall
 opt :   0.1556  next Energy=  -100.728700 (dE=-0.316E-01)
 bond charge predicted
       N       E                     dE             d eps       ncg     rms          rms(c)
DAV:   1    -0.100720896222E+03   -0.21469E-02   -0.50017E+00   832   0.560E+00    0.338E-01
DAV:   2    -0.100771422357E+03   -0.50526E-01   -0.16232E-01   896   0.164E+00    0.280E+00
DAV:   3    -0.100728885555E+03    0.42537E-01   -0.13065E-01   952   0.142E+00    0.500E-01
DAV:   4    -0.100727618809E+03    0.12667E-02   -0.52376E-03   968   0.308E-01    0.409E-01
DAV:   5    -0.100727138201E+03    0.48061E-03   -0.28319E-03   928   0.367E-01    0.379E-01
DAV:   6    -0.100728127081E+03   -0.98888E-03   -0.90291E-03   832   0.298E-01    0.601E-01
DAV:   7    -0.100726451454E+03    0.16756E-02   -0.28757E-03   888   0.223E-01    0.256E-01
DAV:   8    -0.100726393605E+03    0.57849E-04   -0.15559E-03   888   0.146E-01    0.172E-01
DAV:   9    -0.100727270659E+03   -0.87705E-03   -0.56300E-03   768   0.329E-01    0.488E-01
DAV:  10    -0.100726395413E+03    0.87525E-03   -0.15465E-03   536   0.131E-01    0.177E-01
DAV:  11    -0.100726156532E+03    0.23888E-03   -0.79733E-04   544   0.114E-01    0.644E-02
DAV:  12    -0.100726155368E+03    0.11642E-05   -0.60167E-05   488   0.280E-02
  28 F= -.10072616E+03 E0= -.10069922E+03  d E =-.290894E-01
 curvature:  -0.38 expect dE=-0.325E+00 dE for cont linesearch -0.194E-03
 trial: gam= 2.13493 g(F)=  0.852E+00 g(S)=  0.000E+00 ort =-0.332E-01 (trialstep = 0.892E-02)
 search vector abs. value=  0.106E+02
 bond charge predicted
       N       E                     dE             d eps       ncg     rms          rms(c)
DAV:   1    -0.100731296916E+03   -0.51404E-02   -0.22424E-01   832   0.119E+00    0.113E-01
DAV:   2    -0.100748723157E+03   -0.17426E-01   -0.45051E-02  1024   0.839E-01    0.181E+00
DAV:   3    -0.100732298136E+03    0.16425E-01   -0.51402E-02  1024   0.837E-01    0.230E-01
DAV:   4    -0.100731827403E+03    0.47073E-03   -0.94104E-04   928   0.126E-01    0.227E-01
DAV:   5    -0.100731594847E+03    0.23256E-03   -0.17615E-03   528   0.128E-01    0.113E-01
DAV:   6    -0.100731588325E+03    0.65218E-05   -0.12401E-04   504   0.643E-02
  29 F= -.10073159E+03 E0= -.10070456E+03  d E =-.543296E-02
 trial-energy change:   -0.005433  1 .order   -0.006025   -0.006967   -0.005082
 step:   0.0330(harm=  0.0330)  dis= 0.01620  next Energy=  -100.739033 (dE=-0.129E-01)
 bond charge predicted
       N       E                     dE             d eps       ncg     rms          rms(c)
DAV:   1    -0.100733579667E+03   -0.19848E-02   -0.16353E+00   832   0.322E+00    0.224E-01
DAV:   2    -0.100736412313E+03   -0.28326E-02   -0.22671E-02   880   0.556E-01    0.418E-01
DAV:   3    -0.100736876258E+03   -0.46395E-03   -0.47498E-03   920   0.415E-01    0.577E-01
DAV:   4    -0.100736231798E+03    0.64446E-03   -0.14716E-02   840   0.348E-01    0.452E-01
DAV:   5    -0.100735649312E+03    0.58249E-03   -0.92897E-03   752   0.234E-01    0.315E-01
DAV:   6    -0.100735559573E+03    0.89739E-04   -0.35506E-03   688   0.171E-01    0.242E-01
DAV:   7    -0.100735961887E+03   -0.40231E-03   -0.61737E-03   936   0.319E-01    0.382E-01
DAV:   8    -0.100735542844E+03    0.41904E-03   -0.81784E-03   904   0.302E-01    0.243E-01
DAV:   9    -0.100735250291E+03    0.29255E-03   -0.62196E-04   496   0.898E-02    0.884E-02
DAV:  10    -0.100735204237E+03    0.46054E-04   -0.35153E-04   496   0.710E-02
  30 F= -.10073520E+03 E0= -.10070817E+03  d E =-.904887E-02
 curvature:  -0.22 expect dE=-0.540E-01 dE for cont linesearch -0.231E-04
 trial: gam= 0.02159 g(F)=  0.241E+00 g(S)=  0.000E+00 ort =-0.331E-01 (trialstep = 0.137E-01)
 search vector abs. value=  0.244E+00
 bond charge predicted
       N       E                     dE             d eps       ncg     rms          rms(c)
DAV:   1    -0.100738295229E+03   -0.30449E-02   -0.84645E-03   832   0.253E-01    0.437E-02
DAV:   2    -0.100740332347E+03   -0.20371E-02   -0.65248E-03   736   0.279E-01    0.664E-01
DAV:   3    -0.100738382887E+03    0.19495E-02   -0.78678E-03   672   0.274E-01    0.771E-02
DAV:   4    -0.100738329480E+03    0.53407E-04   -0.12037E-04   536   0.598E-02
  31 F= -.10073833E+03 E0= -.10071119E+03  d E =-.312524E-02
 ZBRENT: can't locate minimum, use default step
 trial-energy change:   -0.003125  1 .order   -0.003088   -0.003293   -0.002883
 step:   0.0549(harm=  0.1103)  dis= 0.00205  next Energy=  -100.748435 (dE=-0.132E-01)
 bond charge predicted
       N       E                     dE             d eps       ncg     rms          rms(c)
DAV:   1    -0.100744814232E+03   -0.64313E-02   -0.75747E-02   832   0.754E-01    0.180E-01
DAV:   2    -0.100803702531E+03   -0.58888E-01   -0.14585E-01  1256   0.155E+00    0.319E+00
DAV:   3    -0.100747019400E+03    0.56683E-01   -0.13473E-01  1304   0.152E+00    0.309E-01
DAV:   4    -0.100745548283E+03    0.14711E-02   -0.22805E-03   936   0.212E-01    0.396E-01
DAV:   5    -0.100745242013E+03    0.30627E-03   -0.49174E-04   632   0.868E-02    0.278E-01
DAV:   6    -0.100744912109E+03    0.32990E-03   -0.30024E-03   560   0.188E-01    0.179E-01
DAV:   7    -0.100744817475E+03    0.94635E-04   -0.25562E-04   496   0.614E-02
  32 F= -.10074482E+03 E0= -.10071767E+03  d E =-.961324E-02
 curvature:  -0.04 expect dE=-0.476E-02 dE for cont linesearch -0.102E-02
 ZBRENT: increasing intervall
 opt :   0.1373  next Energy=  -100.740911 (dE=-0.571E-02)
 bond charge predicted
       N       E                     dE             d eps       ncg     rms          rms(c)
DAV:   1    -0.100738109690E+03    0.68024E-02   -0.30119E-01   832   0.150E+00    0.238E-01
DAV:   2    -0.100835275802E+03   -0.97166E-01   -0.27833E-01  1264   0.200E+00    0.429E+00
DAV:   3    -0.100742429043E+03    0.92847E-01   -0.19702E-01  1208   0.171E+00    0.423E-01
DAV:   4    -0.100738805207E+03    0.36238E-02   -0.98017E-03   920   0.368E-01    0.439E-01
DAV:   5    -0.100739047019E+03   -0.24181E-03   -0.47229E-03   920   0.227E-01    0.329E-01
DAV:   6    -0.100738269903E+03    0.77712E-03   -0.15919E-03   800   0.205E-01    0.156E-01
DAV:   7    -0.100738497807E+03   -0.22790E-03   -0.79715E-04   616   0.112E-01    0.263E-01
DAV:   8    -0.100738811236E+03   -0.31343E-03   -0.27686E-04   544   0.907E-02    0.326E-01
DAV:   9    -0.100738532319E+03    0.27892E-03   -0.13678E-04   464   0.528E-02    0.218E-01
DAV:  10    -0.100738279440E+03    0.25288E-03   -0.13521E-03   528   0.150E-01    0.102E-01
DAV:  11    -0.100738263452E+03    0.15988E-04   -0.26244E-04   464   0.405E-02
  33 F= -.10073826E+03 E0= -.10071089E+03  d E =-.305922E-02
 curvature:   0.14 expect dE= 0.115E+00 dE for cont linesearch  0.275E-01
 ZBRENT: bracketing found
 ZBRENT: interpolating
 opt :   0.0775  next Energy=  -100.745734 (dE=-0.105E-01)
 bond charge predicted
       N       E                     dE             d eps       ncg     rms          rms(c)
DAV:   1    -0.100745439951E+03   -0.71605E-02   -0.15892E-01   832   0.109E+00    0.110E-01
DAV:   2    -0.100752062037E+03   -0.66221E-02   -0.22038E-02   992   0.535E-01    0.114E+00
DAV:   3    -0.100745874632E+03    0.61874E-02   -0.14525E-02   992   0.445E-01    0.121E-01
DAV:   4    -0.100745634503E+03    0.24013E-03   -0.43264E-04   704   0.108E-01    0.109E-01
DAV:   5    -0.100745767509E+03   -0.13301E-03   -0.50699E-04   648   0.136E-01    0.172E-01
DAV:   6    -0.100745898696E+03   -0.13119E-03   -0.90715E-04   584   0.169E-01    0.252E-01
DAV:   7    -0.100745796883E+03    0.10181E-03   -0.18491E-04   480   0.519E-02    0.191E-01
DAV:   8    -0.100745628031E+03    0.16885E-03   -0.14324E-03   504   0.127E-01    0.105E-01
DAV:   9    -0.100745655223E+03   -0.27192E-04   -0.71714E-05   488   0.316E-02
  34 F= -.10074566E+03 E0= -.10071846E+03  d E =-.104510E-01
 curvature:  -0.00 expect dE=-0.117E-02 dE for cont linesearch -0.515E-05
 trial: gam= 1.06620 g(F)=  0.243E+00 g(S)=  0.000E+00 ort =-0.162E-01 (trialstep = 0.133E-01)
 search vector abs. value=  0.486E+00
 bond charge predicted
       N       E                     dE             d eps       ncg     rms          rms(c)
DAV:   1    -0.100748369009E+03   -0.27410E-02   -0.11961E-02   832   0.288E-01    0.697E-02
DAV:   2    -0.100756928654E+03   -0.85596E-02   -0.23911E-02  1072   0.577E-01    0.131E+00
DAV:   3    -0.100748695065E+03    0.82336E-02   -0.25111E-02  1104   0.536E-01    0.881E-02
DAV:   4    -0.100748408130E+03    0.28693E-03   -0.25883E-04   584   0.784E-02    0.102E-01
DAV:   5    -0.100748495264E+03   -0.87134E-04   -0.17588E-04   520   0.530E-02
  35 F= -.10074850E+03 E0= -.10072118E+03  d E =-.284004E-02
 ZBRENT: can't locate minimum, use default step
 trial-energy change:   -0.002840  1 .order   -0.002744   -0.003000   -0.002487
 step:   0.0532(harm=  0.0778)  dis= 0.00366  next Energy=  -100.754423 (dE=-0.877E-02)
 bond charge predicted
       N       E                     dE             d eps       ncg     rms          rms(c)
DAV:   1    -0.100752521703E+03   -0.41136E-02   -0.10736E-01   832   0.862E-01    0.162E-01
DAV:   2    -0.100781999113E+03   -0.29477E-01   -0.79152E-02  1232   0.110E+00    0.230E+00
DAV:   3    -0.100753742509E+03    0.28257E-01   -0.80666E-02  1168   0.105E+00    0.247E-01
DAV:   4    -0.100753423566E+03    0.31894E-03   -0.23917E-03   936   0.227E-01    0.467E-01
DAV:   5    -0.100753434714E+03   -0.11148E-04   -0.35149E-04   688   0.760E-02
  36 F= -.10075343E+03 E0= -.10072623E+03  d E =-.777949E-02
 curvature:  -0.07 expect dE=-0.514E-02 dE for cont linesearch -0.488E-04
 trial: gam=-0.08667 g(F)=  0.718E-01 g(S)=  0.000E+00 ort = 0.182E-01 (trialstep = 0.213E-01)
 search vector abs. value=  0.722E-01
 bond charge predicted
       N       E                     dE             d eps       ncg     rms          rms(c)
DAV:   1    -0.100754270769E+03   -0.84720E-03   -0.17277E-02   872   0.430E-01    0.360E-01
DAV:   2    -0.101151671468E+03   -0.39740E+00   -0.10669E+00  1288   0.396E+00    0.813E+00
DAV:   3    -0.100759931214E+03    0.39174E+00   -0.97383E-01  1352   0.379E+00    0.228E-01
DAV:   4    -0.100754216943E+03    0.57143E-02   -0.88025E-03   920   0.337E-01    0.293E-01
DAV:   5    -0.100753664639E+03    0.55230E-03   -0.15079E-03   904   0.215E-01    0.130E-01
DAV:   6    -0.100753831365E+03   -0.16673E-03   -0.16328E-03   584   0.150E-01    0.234E-01
DAV:   7    -0.100753645808E+03    0.18556E-03   -0.21542E-04   488   0.507E-02    0.119E-01
DAV:   8    -0.100753645029E+03    0.77905E-06   -0.77931E-04   544   0.120E-01
  37 F= -.10075365E+03 E0= -.10072617E+03  d E =-.210315E-03
 trial-energy change:   -0.000210  1 .order   -0.001045   -0.001494   -0.000596
 step:   0.0354(harm=  0.0354)  dis= 0.00156  next Energy=  -100.754678 (dE=-0.124E-02)
 bond charge predicted
       N       E                     dE             d eps       ncg     rms          rms(c)
DAV:   1    -0.100753758409E+03   -0.11260E-03   -0.33935E-03   832   0.160E-01    0.760E-02
DAV:   2    -0.100755003108E+03   -0.12447E-02   -0.17766E-03   840   0.291E-01    0.395E-01
DAV:   3    -0.100754674800E+03    0.32831E-03   -0.39301E-03   816   0.348E-01    0.491E-01
DAV:   4    -0.100754315060E+03    0.35974E-03   -0.13353E-02   760   0.291E-01    0.360E-01
DAV:   5    -0.100753817223E+03    0.49784E-03   -0.83169E-04   520   0.920E-02    0.118E-01
DAV:   6    -0.100753765598E+03    0.51625E-04   -0.50083E-04   512   0.923E-02
  38 F= -.10075377E+03 E0= -.10072629E+03  d E =-.330884E-03
 curvature:  -0.02 expect dE=-0.454E-03 dE for cont linesearch -0.491E-06
 trial: gam= 0.31491 g(F)=  0.249E-01 g(S)=  0.000E+00 ort = 0.139E-02 (trialstep = 0.241E-01)
 search vector abs. value=  0.329E-01
 reached required accuracy - stopping structural energy minimisation
