unknown system                          
    1.000000000000000     
     2.402521    0.000000    1.387096
     0.800840    2.265118    1.387096
     0.000000    0.000000    2.774192
   Pt
     1
Direct
  0.000000  0.000000  0.000000
 
   28   28   28
  57.046      55.543      51.518      46.111      40.429      35.011      29.801      24.574      19.375      14.616    
  10.804      8.1914      6.6447      5.8108      5.5409      5.8108      6.6447      8.1914      10.804      14.616    
  19.375      24.574      29.801      35.011      40.429      46.111      51.518      55.543      55.543      52.784    
  48.105      42.651      37.231      32.038      26.887      21.680      16.681      12.399      9.2337      7.2320    
  6.1003      5.5630      5.5631      6.1004      7.2320      9.2336      12.399      16.681      21.679      26.886    
  32.038      37.231      42.652      48.106      52.786      55.544      51.518      48.105      43.456      38.440    
  33.466      28.500      23.425      18.391      13.845      10.260      7.8371      6.4045      5.6234      5.3717    
  5.6234      6.4045      7.8371      10.261      13.845      18.391      23.424      28.499      33.465      38.440    
  43.457      48.107      51.519      52.786      46.111      42.651      38.440      33.960      29.330      24.507    
  19.600      14.988      11.156      8.4062      6.6940      5.7059      5.2372      5.2372      5.7058      6.6940    
  8.4062      11.156      14.988      19.600      24.507      29.329      33.959      38.440      42.652      46.111    
  48.107      48.106      40.429      37.231      33.466      29.330      24.874      20.224      15.717      11.816    
  8.8735      6.9461      5.7906      5.1495      4.9457      5.1496      5.7906      6.9460      8.8733      11.815    
  15.717      20.224      24.874      29.330      33.466      37.231      40.429      42.652      43.457      42.652    
  35.011      32.038      28.500      24.507      20.224      15.966      12.164      9.1801      7.1341      5.8607    
  5.0953      4.7390      4.7390      5.0954      5.8607      7.1340      9.1799      12.164      15.966      20.223    
  24.507      28.500      32.039      35.011      37.231      38.440      38.440      37.231      29.801      26.887    
  23.425      19.600      15.717      12.164      9.2868      7.2345      5.9056      5.0638      4.6032      4.4587    
  4.6032      5.0639      5.9058      7.2347      9.2868      12.164      15.716      19.599      23.424      26.887    
  29.802      32.039      33.466      33.959      33.465      32.038      24.574      21.680      18.391      14.988    
  11.816      9.1801      7.2345      5.9209      5.0490      4.5263      4.2872      4.2872      4.5262      5.0491    
  5.9211      7.2349      9.1804      11.816      14.987      18.390      21.679      24.574      26.887      28.500    
  29.330      29.329      28.499      26.886      19.375      16.681      13.845      11.156      8.8735      7.1341    
  5.9056      5.0490      4.5013      4.2063      4.1143      4.2063      4.5012      5.0489      5.9056      7.1344    
  8.8740      11.156      13.845      16.681      19.374      21.679      23.424      24.507      24.874      24.507    
  23.424      21.679      14.616      12.399      10.260      8.4062      6.9461      5.8607      5.0638      4.5263    
  4.2063      4.0597      4.0598      4.2063      4.5261      5.0634      5.8604      6.9462      8.4067      10.261    
  12.399      14.616      16.681      18.390      19.599      20.223      20.224      19.600      18.391      16.681    
  10.804      9.2337      7.8371      6.6940      5.7906      5.0953      4.6032      4.2872      4.1143      4.0598    
  4.1145      4.2874      4.6032      5.0950      5.7900      6.6936      7.8371      9.2342      10.805      12.399    
  13.845      14.987      15.716      15.966      15.717      14.988      13.845      12.399      8.1914      7.2320    
  6.4045      5.7059      5.1495      4.7390      4.4587      4.2872      4.2063      4.2063      4.2874      4.4591    
  4.7393      5.1495      5.7054      6.4038      7.2315      8.1915      9.2342      10.261      11.156      11.816    
  12.164      12.164      11.815      11.156      10.261      9.2336      6.6447      6.1003      5.6234      5.2372    
  4.9457      4.7390      4.6032      4.5262      4.5012      4.5261      4.6032      4.7393      4.9462      5.2376    
  5.6234      6.0998      6.6440      7.2315      7.8371      8.4067      8.8741      9.1804      9.2868      9.1799    
  8.8733      8.4062      7.8371      7.2320      5.8108      5.5630      5.3717      5.2372      5.1496      5.0954    
  5.0639      5.0491      5.0489      5.0634      5.0950      5.1495      5.2376      5.3724      5.5635      5.8108    
  6.0998      6.4038      6.6936      6.9462      7.1344      7.2349      7.2347      7.1340      6.9461      6.6940    
  6.4045      6.1004      5.5409      5.5631      5.6234      5.7058      5.7906      5.8607      5.9058      5.9211    
  5.9056      5.8604      5.7900      5.7054      5.6234      5.5635      5.5415      5.5635      5.6234      5.7054    
  5.7900      5.8604      5.9056      5.9211      5.9058      5.8607      5.7906      5.7058      5.6234      5.5631    
  5.8108      6.1004      6.4045      6.6940      6.9461      7.1340      7.2347      7.2349      7.1344      6.9462    
  6.6936      6.4038      6.0998      5.8108      5.5635      5.3724      5.2376      5.1495      5.0950      5.0634    
  5.0489      5.0491      5.0639      5.0954      5.1496      5.2372      5.3717      5.5630      6.6447      7.2320    
  7.8371      8.4062      8.8733      9.1799      9.2868      9.1804      8.8740      8.4067      7.8371      7.2315    
  6.6440      6.0998      5.6234      5.2376      4.9462      4.7393      4.6032      4.5261      4.5012      4.5262    
  4.6032      4.7390      4.9457      5.2372      5.6234      6.1003      8.1914      9.2336      10.261      11.156    
  11.815      12.164      12.164      11.816      11.156      10.261      9.2342      8.1915      7.2315      6.4038    
  5.7054      5.1495      4.7393      4.4591      4.2874      4.2063      4.2063      4.2872      4.4587      4.7390    
  5.1495      5.7059      6.4045      7.2320      10.804      12.399      13.845      14.988      15.717      15.966    
  15.716      14.987      13.845      12.399      10.805      9.2342      7.8371      6.6936      5.7900      5.0950    
  4.6032      4.2874      4.1145      4.0598      4.1143      4.2872      4.6032      5.0953      5.7906      6.6940    
  7.8371      9.2337      14.616      16.681      18.391      19.600      20.224      20.223      19.599      18.390    
  16.681      14.616      12.399      10.261      8.4067      6.9462      5.8604      5.0634      4.5261      4.2063    
  4.0598      4.0597      4.2063      4.5263      5.0638      5.8607      6.9461      8.4062      10.260      12.399    
  19.375      21.679      23.424      24.507      24.874      24.507      23.424      21.679      19.374      16.681    
  13.845      11.156      8.8740      7.1344      5.9056      5.0489      4.5012      4.2063      4.1143      4.2063    
  4.5013      5.0490      5.9056      7.1341      8.8735      11.156      13.845      16.681      24.574      26.886    
  28.499      29.329      29.330      28.500      26.887      24.574      21.679      18.390      14.987      11.816    
  9.1804      7.2349      5.9211      5.0491      4.5262      4.2872      4.2872      4.5263      5.0490      5.9209    
  7.2345      9.1801      11.816      14.988      18.391      21.680      29.801      32.037      33.465      33.959    
  33.466      32.039      29.802      26.887      23.424      19.599      15.716      12.164      9.2868      7.2347    
  5.9058      5.0639      4.6032      4.4587      4.6032      5.0638      5.9056      7.2345      9.2868      12.164    
  15.717      19.600      23.425      26.887      35.011      37.231      38.440      38.440      37.231      35.011    
  32.039      28.500      24.507      20.223      15.966      12.164      9.1799      7.1340      5.8607      5.0954    
  4.7390      4.7390      5.0953      5.8607      7.1341      9.1801      12.164      15.966      20.224      24.507    
  28.500      32.038      40.429      42.652      43.457      42.652      40.429      37.231      33.466      29.330    
  24.874      20.224      15.717      11.815      8.8733      6.9460      5.7906      5.1496      4.9457      5.1495    
  5.7906      6.9461      8.8735      11.816      15.717      20.224      24.874      29.330      33.466      37.231    
  46.111      48.106      48.107      46.111      42.652      38.440      33.959      29.329      24.507      19.600    
  14.988      11.156      8.4062      6.6940      5.7058      5.2372      5.2372      5.7059      6.6940      8.4062    
  11.156      14.988      19.600      24.507      29.330      33.960      38.440      42.651      51.518      52.786    
  51.519      48.107      43.457      38.440      33.465      28.499      23.424      18.391      13.845      10.261    
  7.8371      6.4045      5.6234      5.3717      5.6234      6.4045      7.8371      10.260      13.845      18.391    
  23.425      28.500      33.466      38.440      43.456      48.105      55.543      55.544      52.786      48.106    
  42.652      37.231      32.038      26.886      21.679      16.681      12.399      9.2336      7.2320      6.1004    
  5.5631      5.5630      6.1003      7.2320      9.2337      12.399      16.681      21.680      26.887      32.038    
  37.231      42.651      48.105      52.784      55.543      52.784      48.105      42.651      37.231      32.038    
  26.887      21.680      16.681      12.399      9.2337      7.2320      6.1003      5.5630      5.5631      6.1004    
  7.2320      9.2336      12.399      16.681      21.679      26.886      32.038      37.231      42.652      48.106    
  52.786      55.544      52.784      49.129      44.184      38.914      33.785      28.757      23.670      18.626    
  14.049      10.416      7.9459      6.4831      5.6877      5.4309      5.6877      6.4831      7.9459      10.416    
  14.049      18.626      23.669      28.756      33.784      38.914      44.185      49.132      52.786      54.145    
  48.105      44.184      39.509      34.694      29.895      25.016      20.083      15.417      11.495      8.6463    
  6.8602      5.8351      5.3478      5.3478      5.8351      6.8602      8.6463      11.495      15.417      20.083    
  25.016      29.894      34.693      39.509      44.185      48.106      50.392      50.391      42.651      38.914    
  34.694      30.277      25.691      20.975      16.382      12.349      9.2573      7.2065      5.9823      5.3042    
  5.0875      5.3042      5.9823      7.2064      9.2572      12.349      16.382      20.975      25.692      30.277    
  34.694      38.914      42.651      45.318      46.296      45.318      37.231      33.785      29.895      25.691    
  21.273      16.877      12.894      9.7075      7.4875      6.1080      5.2857      4.8999      4.9000      5.2857    
  6.1080      7.4874      9.7073      12.894      16.877      21.274      25.692      29.895      33.785      37.231    
  39.924      41.432      41.432      39.924      32.038      28.757      25.016      20.975      16.877      13.080    
  9.9455      7.6708      6.1980      5.2794      4.7724      4.6128      4.7724      5.2794      6.1980      7.6708    
  9.9453      13.080      16.877      20.975      25.017      28.757      32.039      34.683      36.441      37.062    
  36.441      34.683      26.887      23.670      20.083      16.382      12.894      9.9455      7.7345      6.2449    
  5.2775      4.6932      4.4249      4.4249      4.6932      5.2775      6.2451      7.7347      9.9455      12.893    
  16.381      20.083      23.670      26.887      29.544      31.465      32.482      32.482      31.464      29.543    
  21.680      18.626      15.417      12.349      9.7075      7.6708      6.2449      5.2770      4.6551      4.3195    
  4.2148      4.3194      4.6550      5.2770      6.2451      7.6713      9.7079      12.349      15.416      18.626    
  21.679      24.327      26.376      27.675      28.121      27.675      26.375      24.327      16.681      14.049    
  11.495      9.2573      7.4876      6.1980      5.2775      4.6551      4.2856      4.1170      4.1170      4.2855    
  4.6549      5.2772      6.1980      7.4879      9.2579      11.495      14.049      16.681      19.134      21.180    
  22.645      23.409      23.409      22.646      21.181      19.134      12.399      10.416      8.6463      7.2065    
  6.1080      5.2794      4.6932      4.3195      4.1170      4.0535      4.1171      4.3195      4.6930      5.2790    
  6.1077      7.2065      8.6468      10.417      12.399      14.404      16.222      17.665      18.589      18.908    
  18.590      17.666      16.222      14.404      9.2337      7.9459      6.8602      5.9823      5.2857      4.7724    
  4.4249      4.2148      4.1170      4.1171      4.2150      4.4251      4.7724      5.2853      5.9818      6.8598    
  7.9459      9.2342      10.640      12.025      13.234      14.126      14.598      14.599      14.126      13.234    
  12.025      10.639      7.2320      6.4831      5.8351      5.3042      4.8999      4.6128      4.4249      4.3194    
  4.2855      4.3195      4.4251      4.6132      4.9003      5.3042      5.8346      6.4824      7.2315      8.0758    
  8.9635      9.8050      10.498      10.955      11.113      10.954      10.498      9.8043      8.9630      8.0758    
  6.1003      5.6877      5.3478      5.0875      4.9000      4.7724      4.6932      4.6550      4.6549      4.6930    
  4.7724      4.9003      5.0881      5.3483      5.6877      6.0999      6.5609      7.0438      7.5226      7.9506    
  8.2740      8.4480      8.4477      8.2734      7.9501      7.5226      7.0442      6.5615      5.5630      5.4309    
  5.3478      5.3042      5.2857      5.2794      5.2775      5.2770      5.2772      5.2790      5.2853      5.3042    
  5.3483      5.4316      5.5635      5.7426      5.9548      6.1758      6.3788      6.5435      6.6517      6.6893    
  6.6515      6.5435      6.3792      6.1765      5.9553      5.7427      5.5631      5.6877      5.8351      5.9823    
  6.1080      6.1980      6.2451      6.2451      6.1980      6.1077      5.9818      5.8346      5.6877      5.5635    
  5.4787      5.4388      5.4375      5.4604      5.4914      5.5179      5.5326      5.5327      5.5182      5.4919    
  5.4608      5.4375      5.4384      5.4781      6.1004      6.4831      6.8602      7.2064      7.4874      7.6708    
  7.7347      7.6713      7.4879      7.2065      6.8598      6.4824      6.0999      5.7426      5.4388      5.2013    
  5.0284      4.9098      4.8334      4.7907      4.7770      4.7910      4.8337      4.9098      5.0280      5.2007    
  5.4384      5.7427      7.2320      7.9459      8.6463      9.2572      9.7073      9.9453      9.9455      9.7079    
  9.2579      8.6468      7.9459      7.2315      6.5609      5.9548      5.4375      5.0284      4.7263      4.5181    
  4.3889      4.3272      4.3272      4.3888      4.5178      4.7258      5.0280      5.4375      5.9553      6.5615    
  9.2336      10.416      11.495      12.349      12.894      13.080      12.894      12.349      11.495      10.417    
  9.2342      8.0758      7.0438      6.1758      5.4604      4.9098      4.5181      4.2635      4.1222      4.0770    
  4.1220      4.2633      4.5178      4.9098      5.4608      6.1765      7.0443      8.0758      12.399      14.049    
  15.417      16.382      16.877      16.877      16.381      15.416      14.049      12.399      10.640      8.9635    
  7.5226      6.3788      5.4914      4.8334      4.3889      4.1222      3.9989      3.9988      4.1221      4.3889    
  4.8337      5.4919      6.3792      7.5226      8.9631      10.639      16.681      18.626      20.083      20.975    
  21.274      20.975      20.083      18.626      16.681      14.404      12.025      9.8050      7.9506      6.5435    
  5.5179      4.7907      4.3272      4.0770      3.9988      4.0770      4.3273      4.7910      5.5182      6.5435    
  7.9501      9.8043      12.025      14.404      21.679      23.669      25.016      25.692      25.692      25.017    
  23.670      21.679      19.134      16.222      13.234      10.498      8.2740      6.6517      5.5326      4.7770    
  4.3272      4.1220      4.1221      4.3273      4.7771      5.5326      6.6514      8.2735      10.498      13.234    
  16.222      19.134      26.886      28.756      29.894      30.277      29.895      28.757      26.887      24.327    
  21.180      17.665      14.126      10.955      8.4480      6.6893      5.5327      4.7910      4.3888      4.2633    
  4.3889      4.7910      5.5326      6.6891      8.4477      10.955      14.126      17.665      21.181      24.327    
  32.037      33.784      34.693      34.694      33.785      32.039      29.544      26.376      22.645      18.589    
  14.598      11.113      8.4477      6.6515      5.5182      4.8337      4.5178      4.5178      4.8337      5.5182    
  6.6514      8.4477      11.114      14.599      18.590      22.646      26.376      29.543      37.231      38.914    
  39.509      38.914      37.231      34.683      31.465      27.675      23.409      18.908      14.599      10.954    
  8.2734      6.5435      5.4919      4.9098      4.7258      4.9098      5.4919      6.5435      8.2735      10.955    
  14.599      18.908      23.409      27.675      31.465      34.683      42.652      44.185      44.185      42.651    
  39.924      36.441      32.482      28.121      23.409      18.590      14.126      10.498      7.9501      6.3791    
  5.4608      5.0280      5.0280      5.4608      6.3792      7.9501      10.498      14.126      18.590      23.409    
  28.121      32.482      36.441      39.924      48.106      49.132      48.106      45.318      41.432      37.062    
  32.482      27.675      22.646      17.666      13.234      9.8043      7.5226      6.1765      5.4375      5.2007    
  5.4375      6.1765      7.5226      9.8043      13.234      17.665      22.646      27.675      32.482      37.062    
  41.432      45.318      52.786      52.786      50.392      46.296      41.432      36.441      31.464      26.375    
  21.181      16.222      12.025      8.9630      7.0442      5.9553      5.4384      5.4384      5.9553      7.0443    
  8.9631      12.025      16.222      21.181      26.376      31.465      36.441      41.432      46.296      50.391    
  55.544      54.145      50.391      45.318      39.924      34.683      29.543      24.327      19.134      14.404    
  10.639      8.0758      6.5615      5.7427      5.4781      5.7427      6.5615      8.0758      10.639      14.404    
  19.134      24.327      29.543      34.683      39.924      45.318      50.391      54.145      51.518      48.105    
  43.456      38.440      33.466      28.500      23.425      18.391      13.845      10.260      7.8371      6.4045    
  5.6234      5.3717      5.6234      6.4045      7.8371      10.261      13.845      18.391      23.424      28.499    
  33.465      38.440      43.457      48.107      51.519      52.786      48.105      44.184      39.509      34.694    
  29.895      25.016      20.083      15.417      11.495      8.6463      6.8602      5.8351      5.3478      5.3478    
  5.8351      6.8602      8.6463      11.495      15.417      20.083      25.016      29.894      34.693      39.509    
  44.185      48.106      50.392      50.391      43.456      39.509      35.110      30.583      25.951      21.215    
  16.600      12.529      9.3889      7.2965      6.0484      5.3577      5.1366      5.3577      6.0484      7.2964    
  9.3889      12.529      16.600      21.216      25.951      30.583      35.110      39.508      43.456      46.296    
  47.340      46.296      38.440      34.694      30.583      26.257      21.776      17.323      13.263      9.9815    
  7.6741      6.2377      5.3860      4.9848      4.9849      5.3860      6.2376      7.6740      9.9814      13.263    
  17.324      21.776      26.258      30.583      34.693      38.439      41.430      43.127      43.127      41.432    
  33.466      29.895      25.951      21.776      17.565      13.641      10.361      7.9517      6.3851      5.4176    
  4.8811      4.7116      4.8811      5.4176      6.3851      7.9516      10.361      13.640      17.566      21.776    
  25.952      29.895      33.465      36.440      38.466      39.192      38.467      36.441      28.500      25.016    
  21.215      17.323      13.641      10.491      8.0985      6.4790      5.4420      4.8138      4.5240      4.5240    
  4.8137      5.4421      6.4791      8.0985      10.491      13.640      17.323      21.216      25.017      28.500    
  31.464      33.674      34.869      34.869      33.674      31.465      23.425      20.083      16.600      13.263    
  10.361      8.0985      6.5112      5.4547      4.7753      4.4074      4.2926      4.4074      4.7753      5.4548    
  6.5115      8.0987      10.361      13.262      16.600      20.083      23.425      26.376      28.714      30.230    
  30.757      30.230      28.714      26.376      18.391      15.417      12.529      9.9815      7.9517      6.4790    
  5.4547      4.7627      4.3516      4.1642      4.1642      4.3515      4.7626      5.4547      6.4792      7.9522    
  9.9818      12.529      15.417      18.390      21.180      23.540      25.255      26.161      26.161      25.255    
  23.540      21.181      13.845      11.495      9.3889      7.6741      6.3851      5.4420      4.7753      4.3516    
  4.1232      4.0519      4.1232      4.3515      4.7751      5.4418      6.3851      7.6745      9.3895      11.495    
  13.845      16.222      18.388      20.123      21.244      21.632      21.244      20.124      18.389      16.222    
  10.260      8.6463      7.2965      6.2377      5.4176      4.8138      4.4074      4.1642      4.0519      4.0520    
  4.1643      4.4074      4.8135      5.4171      6.2373      7.2965      8.6468      10.261      12.025      13.766    
  15.291      16.422      17.024      17.024      16.422      15.291      13.766      12.025      7.8371      6.8602    
  6.0484      5.3860      4.8811      4.5240      4.2926      4.1642      4.1232      4.1643      4.2928      4.5242    
  4.8811      5.3856      6.0478      6.8598      7.8371      8.9636      10.158      11.295      12.236      12.857    
  13.074      12.857      12.236      11.295      10.157      8.9631      6.4045      5.8351      5.3577      4.9849    
  4.7116      4.5240      4.4074      4.3515      4.3515      4.4074      4.5242      4.7121      4.9852      5.3576    
  5.8346      6.4038      7.0438      7.7414      8.4484      9.0874      9.5735      9.8364      9.8362      9.5730    
  9.0867      8.4479      7.7413      7.0443      5.6234      5.3478      5.1366      4.9849      4.8811      4.8137    
  4.7753      4.7626      4.7751      4.8135      4.8811      4.9852      5.1372      5.3483      5.6234      5.9548    
  6.3199      6.6890      7.0370      7.3276      7.5216      7.5896      7.5212      7.3272      7.0370      6.6894    
  6.3206      5.9553      5.3717      5.3478      5.3577      5.3860      5.4176      5.4421      5.4548      5.4547    
  5.4418      5.4171      5.3856      5.3576      5.3483      5.3724      5.4389      5.5457      5.6798      5.8206    
  5.9463      6.0393      6.0887      6.0887      6.0394      5.9467      5.8212      5.6803      5.5457      5.4384    
  5.6234      5.8351      6.0484      6.2376      6.3851      6.4791      6.5115      6.4792      6.3851      6.2373    
  6.0478      5.8346      5.6234      5.4389      5.2974      5.2032      5.1497      5.1244      5.1147      5.1118    
  5.1114      5.1121      5.1151      5.1247      5.1497      5.2028      5.2968      5.4384      6.4045      6.8602    
  7.2964      7.6740      7.9516      8.0985      8.0987      7.9522      7.6745      7.2965      6.8598      6.4038    
  5.9548      5.5457      5.2032      4.9368      4.7421      4.6083      4.5248      4.4848      4.4849      4.5251    
  4.6083      4.7417      4.9362      5.2027      5.5457      5.9553      7.8371      8.6463      9.3889      9.9814    
  10.361      10.491      10.361      9.9819      9.3895      8.6468      7.8371      7.0438      6.3199      5.6798    
  5.1497      4.7421      4.4496      4.2565      4.1473      4.1121      4.1473      4.2563      4.4492      4.7417    
  5.1497      5.6802      6.3206      7.0442      10.261      11.495      12.529      13.263      13.640      13.640    
  13.262      12.529      11.495      10.261      8.9636      7.7414      6.6890      5.8206      5.1244      4.6083    
  4.2565      4.0423      3.9418      3.9418      4.0421      4.2563      4.6083      5.1247      5.8212      6.6895    
  7.7413      8.9630      13.845      15.417      16.600      17.324      17.566      17.323      16.600      15.417    
  13.845      12.025      10.158      8.4484      7.0370      5.9463      5.1147      4.5248      4.1473      3.9418    
  3.8771      3.9418      4.1473      4.5251      5.1151      5.9466      7.0370      8.4480      10.157      12.025    
  18.391      20.083      21.216      21.776      21.776      21.216      20.083      18.390      16.222      13.766    
  11.295      9.0874      7.3276      6.0393      5.1118      4.4848      4.1121      3.9418      3.9418      4.1122    
  4.4849      5.1120      6.0393      7.3272      9.0868      11.295      13.766      16.222      23.424      25.016    
  25.951      26.258      25.952      25.017      23.425      21.180      18.388      15.291      12.236      9.5735    
  7.5216      6.0887      5.1113      4.4849      4.1473      4.0421      4.1473      4.4849      5.1113      6.0885    
  7.5212      9.5732      12.236      15.291      18.389      21.181      28.499      29.894      30.583      30.583    
  29.895      28.500      26.376      23.540      20.123      16.422      12.857      9.8364      7.5896      6.0887    
  5.1121      4.5251      4.2563      4.2563      4.5251      5.1120      6.0885      7.5894      9.8364      12.858    
  16.422      20.123      23.540      26.375      33.465      34.693      35.110      34.693      33.465      31.464    
  28.714      25.255      21.244      17.024      13.074      9.8362      7.5212      6.0394      5.1151      4.6083    
  4.4492      4.6083      5.1151      6.0393      7.5212      9.8364      13.075      17.024      21.244      25.255    
  28.714      31.464      38.440      39.509      39.508      38.439      36.440      33.674      30.230      26.161    
  21.632      17.024      12.857      9.5730      7.3272      5.9467      5.1247      4.7417      4.7417      5.1247    
  5.9466      7.3272      9.5732      12.858      17.024      21.631      26.160      30.230      33.674      36.441    
  43.457      44.185      43.456      41.430      38.466      34.869      30.757      26.161      21.244      16.422    
  12.236      9.0867      7.0370      5.8212      5.1497      4.9362      5.1497      5.8212      7.0370      9.0868    
  12.236      16.422      21.244      26.160      30.756      34.869      38.467      41.432      48.107      48.106    
  46.296      43.127      39.192      34.869      30.230      25.255      20.124      15.291      11.295      8.4479    
  6.6894      5.6803      5.2028      5.2027      5.6802      6.6894      8.4479      11.295      15.291      20.123    
  25.255      30.230      34.869      39.192      43.127      46.296      51.519      50.392      47.340      43.127    
  38.467      33.674      28.714      23.540      18.389      13.766      10.157      7.7413      6.3205      5.5457    
  5.2968      5.5457      6.3205      7.7413      10.157      13.766      18.389      23.540      28.714      33.674    
  38.467      43.127      47.340      50.392      52.786      50.391      46.296      41.432      36.441      31.465    
  26.376      21.181      16.222      12.025      8.9631      7.0443      5.9553      5.4384      5.4384      5.9553    
  7.0442      8.9630      12.025      16.222      21.181      26.375      31.464      36.441      41.432      46.296    
  50.392      52.786      46.111      42.651      38.440      33.960      29.330      24.507      19.600      14.988    
  11.156      8.4062      6.6940      5.7059      5.2372      5.2372      5.7058      6.6940      8.4062      11.156    
  14.988      19.600      24.507      29.329      33.959      38.440      42.652      46.111      48.107      48.106    
  42.651      38.914      34.694      30.277      25.691      20.975      16.382      12.349      9.2573      7.2065    
  5.9823      5.3042      5.0875      5.3042      5.9823      7.2064      9.2572      12.349      16.382      20.975    
  25.692      30.277      34.694      38.914      42.651      45.318      46.296      45.318      38.440      34.694    
  30.583      26.257      21.776      17.323      13.263      9.9815      7.6741      6.2377      5.3860      4.9848    
  4.9849      5.3860      6.2376      7.6740      9.9814      13.263      17.324      21.776      26.258      30.583    
  34.693      38.439      41.430      43.127      43.127      41.432      33.960      30.277      26.257      22.036    
  17.791      13.828      10.502      8.0485      6.4496      5.4652      4.9186      4.7457      4.9186      5.4652    