unknown system                          
    1.000000000000000     
     2.402521    0.000000    1.387096
     0.800840    2.265118    1.387096
     0.000000    0.000000    2.774192
   Pt
     1
Direct
  0.000000  0.000000  0.000000
 
   28   28   28
 0.57045994016E+02 0.55543048068E+02 0.51517891586E+02 0.46110607652E+02 0.40429246506E+02
 0.35010764207E+02 0.29800729165E+02 0.24573627628E+02 0.19375095878E+02 0.14616418152E+02
 0.10803926866E+02 0.81914075195E+01 0.66446774035E+01 0.58107829127E+01 0.55408694597E+01
 0.58107826735E+01 0.66446770299E+01 0.81914071331E+01 0.10803926576E+02 0.14616418079E+02
 0.19375096250E+02 0.24573628782E+02 0.29800731317E+02 0.35010767124E+02 0.40429249468E+02
 0.46110609872E+02 0.51517892752E+02 0.55543048451E+02 0.55543048244E+02 0.52784124607E+02
 0.48105069823E+02 0.42651333547E+02 0.37231282589E+02 0.32038421590E+02 0.26886872018E+02
 0.21679661065E+02 0.16681359348E+02 0.12398572025E+02 0.92336741673E+01 0.72319954892E+01
 0.61003396361E+01 0.55630095518E+01 0.55630639128E+01 0.61004106678E+01 0.72319658427E+01
 0.92336147068E+01 0.12398631708E+02 0.16681451283E+02 0.21679437038E+02 0.26886134744E+02
 0.32037504391E+02 0.37230886127E+02 0.42651925824E+02 0.48106441680E+02 0.52785502797E+02
 0.55543620251E+02 0.51517892140E+02 0.48105069976E+02 0.43456008582E+02 0.38439992976E+02
 0.33466201777E+02 0.28499646225E+02 0.23424571836E+02 0.18390766067E+02 0.13844657273E+02
 0.10260476822E+02 0.78371214900E+01 0.64045039204E+01 0.56233819458E+01 0.53717228782E+01
 0.56234252953E+01 0.64045076266E+01 0.78370824192E+01 0.10260519828E+02 0.13844831634E+02
 0.18390842660E+02 0.23424185601E+02 0.28498736569E+02 0.33465278645E+02 0.38439841938E+02
 0.43457009808E+02 0.48106749681E+02 0.51519173442E+02 0.52785502790E+02 0.46110608345E+02
 0.42651333356E+02 0.38439992476E+02 0.33959845960E+02 0.29329719311E+02 0.24507104404E+02
 0.19600011128E+02 0.14988007930E+02 0.11155954231E+02 0.84061713546E+01 0.66940057547E+01
 0.57058550654E+01 0.52372304175E+01 0.52372274503E+01 0.57058419248E+01 0.66939803606E+01
 0.84061580307E+01 0.11156006779E+02 0.14988147475E+02 0.19600140613E+02 0.24507037974E+02
 0.29329381721E+02 0.33959451392E+02 0.38439928996E+02 0.42651775435E+02 0.46111258579E+02
 0.48106750149E+02 0.48106441494E+02 0.40429246806E+02 0.37231281607E+02 0.33466200469E+02
 0.29329718585E+02 0.24873564962E+02 0.20223595682E+02 0.15716647958E+02 0.11815520537E+02
 0.88734670987E+01 0.69461061510E+01 0.57905535158E+01 0.51495274198E+01 0.49456596526E+01
 0.51495524565E+01 0.57905607226E+01 0.69460458520E+01 0.88733373245E+01 0.11815396050E+02
 0.15716639539E+02 0.20223756118E+02 0.24873826078E+02 0.29329929345E+02 0.33466239612E+02
 0.37231144369E+02 0.40429036766E+02 0.42651776617E+02 0.43457010742E+02 0.42651925127E+02
 0.35010763982E+02 0.32038420114E+02 0.28499644684E+02 0.24507103611E+02 0.20223595610E+02
 0.15966347101E+02 0.12164247570E+02 0.91800649264E+01 0.71340600320E+01 0.58606744576E+01
 0.50953121050E+01 0.47389910699E+01 0.47390152529E+01 0.50953658200E+01 0.58607068974E+01
 0.71340076346E+01 0.91798862758E+01 0.12163963926E+02 0.15966058820E+02 0.20223445076E+02
 0.24507193142E+02 0.28499965672E+02 0.32038855278E+02 0.35011163267E+02 0.37231146351E+02
 0.38439931505E+02 0.38439843221E+02 0.37230885059E+02 0.29800729106E+02 0.26886871153E+02
 0.23424571250E+02 0.19600011307E+02 0.15716648644E+02 0.12164248142E+02 0.92867618200E+01
 0.72344987080E+01 0.59056353330E+01 0.50638157483E+01 0.46031770789E+01 0.44587100144E+01
 0.46031623488E+01 0.50638576196E+01 0.59057733419E+01 0.72346551632E+01 0.92867691613E+01
 0.12163963358E+02 0.15716071377E+02 0.19599347343E+02 0.23424198374E+02 0.26887158677E+02
 0.29801751395E+02 0.32038857936E+02 0.33466243706E+02 0.33959455160E+02 0.33465280521E+02
 0.32037503825E+02 0.24573628866E+02 0.21679662000E+02 0.18390767376E+02 0.14988009682E+02
 0.11815522317E+02 0.91800662453E+01 0.72344993349E+01 0.59209405257E+01 0.50490351330E+01
 0.45262737254E+01 0.42871913621E+01 0.42871503145E+01 0.45262031342E+01 0.50490547301E+01
 0.59211448753E+01 0.72348593399E+01 0.91803842661E+01 0.11815505909E+02 0.14987487058E+02
 0.18389924832E+02 0.21679053444E+02 0.24573812990E+02 0.26887161701E+02 0.28499970909E+02
 0.29329935303E+02 0.29329386763E+02 0.28498739634E+02 0.26886135835E+02 0.19375099135E+02
 0.16681362489E+02 0.13844660490E+02 0.11155957308E+02 0.88734696607E+01 0.71340618408E+01
 0.59056364030E+01 0.50490355893E+01 0.45013273852E+01 0.42063255780E+01 0.41143273896E+01
 0.42062795643E+01 0.45011969181E+01 0.50488735146E+01 0.59056373564E+01 0.71343958552E+01
 0.88740461030E+01 0.11156406486E+02 0.13844621747E+02 0.16680821714E+02 0.19374424596E+02
 0.21679056434E+02 0.23424204012E+02 0.24507200374E+02 0.24873833481E+02 0.24507044317E+02
 0.23424190345E+02 0.21679440466E+02 0.14616423181E+02 0.12398576741E+02 0.10260481108E+02
 0.84061749735E+01 0.69461089534E+01 0.58606764874E+01 0.50638170788E+01 0.45262744806E+01
 0.42063259107E+01 0.40597405086E+01 0.40597772483E+01 0.42063343049E+01 0.45260837469E+01
 0.50634344921E+01 0.58603591223E+01 0.69461619802E+01 0.84066715831E+01 0.10261167517E+02
 0.12399035576E+02 0.14616346058E+02 0.16680824317E+02 0.18389930096E+02 0.19599354692E+02
 0.20223453467E+02 0.20223764422E+02 0.19600148047E+02 0.18390849013E+02 0.16681456815E+02
 0.10803932670E+02 0.92336793332E+01 0.78371258778E+01 0.66940093209E+01 0.57905563500E+01
 0.50953142295E+01 0.46031785878E+01 0.42871923914E+01 0.41143280493E+01 0.40597775856E+01
 0.41144750541E+01 0.42873506448E+01 0.46031551172E+01 0.50949949069E+01 0.57900310239E+01
 0.66935753735E+01 0.78371094650E+01 0.92341655512E+01 0.10804627060E+02 0.12399037595E+02
 0.13844626079E+02 0.14987493535E+02 0.15716079379E+02 0.15966067489E+02 0.15716648095E+02
 0.14988155454E+02 0.13844838920E+02 0.12398638372E+02 0.81914131113E+01 0.72320003417E+01
 0.64045080708E+01 0.57058585686E+01 0.51495302769E+01 0.47389933570E+01 0.44587118312E+01
 0.42871517432E+01 0.42062806486E+01 0.42063350487E+01 0.42873510273E+01 0.44590618977E+01
 0.47393179432E+01 0.51495275212E+01 0.57053819447E+01 0.64037817356E+01 0.72314966500E+01
 0.81914708619E+01 0.92341669832E+01 0.10261170724E+02 0.11156411550E+02 0.11815512572E+02
 0.12163971095E+02 0.12163972123E+02 0.11815404200E+02 0.11156014571E+02 0.10260527109E+02
 0.92336213818E+01 0.66446824952E+01 0.61003442324E+01 0.56233860045E+01 0.52372339661E+01
 0.49456627562E+01 0.47390179703E+01 0.46031647094E+01 0.45262051372E+01 0.45011985428E+01
 0.45260849667E+01 0.46031559133E+01 0.47393183195E+01 0.49461880786E+01 0.52376452536E+01
 0.56233625156E+01 0.60998474845E+01 0.66439925548E+01 0.72314976341E+01 0.78371116943E+01
 0.84066752131E+01 0.88740511008E+01 0.91803903942E+01 0.92867760428E+01 0.91798935058E+01
 0.88733445611E+01 0.84061650219E+01 0.78370889859E+01 0.72319718696E+01 0.58107877267E+01
 0.55630140100E+01 0.53717270255E+01 0.52372313394E+01 0.51495561065E+01 0.50953692041E+01
 0.50638606781E+01 0.50490573929E+01 0.50488757191E+01 0.50634361949E+01 0.50949960919E+01
 0.51495282123E+01 0.52376455286E+01 0.53723818858E+01 0.55634993898E+01 0.58107531861E+01
 0.60998481930E+01 0.64037833117E+01 0.66935779205E+01 0.69461655390E+01 0.71344003609E+01
 0.72348646213E+01 0.72346609786E+01 0.71340137236E+01 0.69460519795E+01 0.66939863449E+01
 0.64045133659E+01 0.61004161024E+01 0.55408740739E+01 0.55630684458E+01 0.56234297779E+01
 0.57058463384E+01 0.57905649949E+01 0.58607109247E+01 0.59057770158E+01 0.59211480990E+01
 0.59056400442E+01 0.58603612117E+01 0.57900324870E+01 0.57053828130E+01 0.56233628974E+01
 0.55634994667E+01 0.55415316828E+01 0.55634998653E+01 0.56233636355E+01 0.57053837993E+01
 0.57900336327E+01 0.58603624496E+01 0.59056413249E+01 0.59211493755E+01 0.59057782335E+01
 0.58607120252E+01 0.57905659275E+01 0.57058470661E+01 0.56234302764E+01 0.55630686993E+01
 0.58107872825E+01 0.61004153903E+01 0.64045123970E+01 0.66939851533E+01 0.69460506211E+01
 0.71340122711E+01 0.72346595121E+01 0.72348632127E+01 0.71343990621E+01 0.69461643835E+01
 0.66935769419E+01 0.64037825630E+01 0.60998477469E+01 0.58107531095E+01 0.55634997077E+01
 0.53723825630E+01 0.52376464800E+01 0.51495293343E+01 0.50949972924E+01 0.50634374043E+01
 0.50488768832E+01 0.50490584606E+01 0.50638615990E+01 0.50953699363E+01 0.51495566246E+01
 0.52372316325E+01 0.53717270864E+01 0.55630138262E+01 0.66446815890E+01 0.72319706146E+01
 0.78370874107E+01 0.84061632115E+01 0.88733426404E+01 0.91798916137E+01 0.92867743017E+01
 0.91803888851E+01 0.88740498548E+01 0.84066742291E+01 0.78371109717E+01 0.72314971965E+01
 0.66439924450E+01 0.60998477339E+01 0.56233631126E+01 0.52376461329E+01 0.49461891405E+01
 0.47393194598E+01 0.46031570450E+01 0.45260860234E+01 0.45011994715E+01 0.45262058932E+01
 0.46031652607E+01 0.47390183047E+01 0.49456628789E+01 0.52372338813E+01 0.56233856940E+01
 0.61003436504E+01 0.81914115203E+01 0.92336192480E+01 0.10260524542E+02 0.11156011782E+02
 0.11815401447E+02 0.12163969640E+02 0.12163969037E+02 0.11815510994E+02 0.11156410421E+02
 0.10261169981E+02 0.92341665739E+01 0.81914707705E+01 0.72314968799E+01 0.64037822758E+01
 0.57053827486E+01 0.51495285049E+01 0.47393190045E+01 0.44590629399E+01 0.42873519725E+01
 0.42063358389E+01 0.42062812443E+01 0.42871521255E+01 0.44587120064E+01 0.47389933509E+01
 0.51495301081E+01 0.57058582097E+01 0.64045074274E+01 0.72319992786E+01 0.10803929841E+02
 0.12398634748E+02 0.13844834811E+02 0.14988151295E+02 0.15716644311E+02 0.15966064379E+02
 0.15716077065E+02 0.14987491977E+02 0.13844625144E+02 0.12399037141E+02 0.10804626984E+02
 0.92341657985E+01 0.78371099965E+01 0.66935761361E+01 0.57900319432E+01 0.50949958934E+01
 0.46031560761E+01 0.42873514909E+01 0.41144757229E+01 0.40597780396E+01 0.41143282824E+01
 0.42871924305E+01 0.46031784824E+01 0.50953140162E+01 0.57905559954E+01 0.66940086778E+01
 0.78371247066E+01 0.92336773926E+01 0.14616418419E+02 0.16681451141E+02 0.18390843048E+02
 0.19600142470E+02 0.20223759760E+02 0.20223449974E+02 0.19599352348E+02 0.18389928709E+02
 0.16680823649E+02 0.14616345909E+02 0.12399035816E+02 0.10261168056E+02 0.84066723447E+01
 0.69461628768E+01 0.58603600638E+01 0.50634353940E+01 0.45260845255E+01 0.42063348893E+01
 0.40597775974E+01 0.40597406233E+01 0.42063258358E+01 0.45262742892E+01 0.50638168286E+01
 0.58606761487E+01 0.69461083423E+01 0.84061737563E+01 0.10260478892E+02 0.12398573249E+02
 0.19375092134E+02 0.21679432776E+02 0.23424182883E+02 0.24507037888E+02 0.24873828546E+02
 0.24507196992E+02 0.23424201953E+02 0.21679055365E+02 0.19374424228E+02 0.16680821849E+02
 0.13844622250E+02 0.11156407243E+02 0.88740470049E+01 0.71343967953E+01 0.59056382415E+01
 0.50488742687E+01 0.45011974690E+01 0.42062798613E+01 0.41143274300E+01 0.42063254161E+01
 0.45013271145E+01 0.50490352919E+01 0.59056360666E+01 0.71340612762E+01 0.88734684838E+01
 0.11155955009E+02 0.13844656621E+02 0.16681356901E+02 0.24573620215E+02 0.26886127065E+02
 0.28498731783E+02 0.29329380542E+02 0.29329930923E+02 0.28499968152E+02 0.26887160157E+02
 0.24573812287E+02 0.21679053341E+02 0.18389925187E+02 0.14987487745E+02 0.11815506793E+02
 0.91803852168E+01 0.72348602459E+01 0.59211456477E+01 0.50490552999E+01 0.45262034415E+01
 0.42871503398E+01 0.42871911543E+01 0.45262733910E+01 0.50490347811E+01 0.59209401765E+01
 0.72344988288E+01 0.91800652109E+01 0.11815520207E+02 0.14988005936E+02 0.18390761674E+02
 0.21679654489E+02 0.29800720270E+02 0.32037495534E+02 0.33465273684E+02 0.33959450203E+02
 0.33466240509E+02 0.32038856052E+02 0.29801750370E+02 0.26887158244E+02 0.23424198431E+02
 0.19599347820E+02 0.15716072153E+02 0.12163964275E+02 0.92867700807E+01 0.72346559783E+01
 0.59057739681E+01 0.50638579928E+01 0.46031624265E+01 0.44587098195E+01 0.46031767145E+01
 0.50638153487E+01 0.59056349647E+01 0.72344982701E+01 0.92867610103E+01 0.12164246470E+02
 0.15716645546E+02 0.19600006363E+02 0.23424564409E+02 0.26886862865E+02 0.35010756650E+02
 0.37230878679E+02 0.38439838411E+02 0.38439928342E+02 0.37231144445E+02 0.35011162097E+02
 0.32038854526E+02 0.28499965296E+02 0.24507193209E+02 0.20223445564E+02 0.15966059586E+02
 0.12163964793E+02 0.91798871051E+01 0.71340083255E+01 0.58607073661E+01 0.50953660071E+01
 0.47390151408E+01 0.47389907301E+01 0.50953116806E+01 0.58606740669E+01 0.71340596534E+01
 0.91800643618E+01 0.12164246453E+02 0.15966344976E+02 0.20223592083E+02 0.24507098505E+02
 0.28499638170E+02 0.32038412755E+02 0.40429242026E+02 0.42651921277E+02 0.43457008133E+02
 0.42651775043E+02 0.40429035708E+02 0.37231143420E+02 0.33466238737E+02 0.29329928776E+02
 0.24873826007E+02 0.20223756516E+02 0.15716640216E+02 0.11815396809E+02 0.88733380331E+01
 0.69460464098E+01 0.57905610434E+01 0.51495524869E+01 0.49456594070E+01 0.51495270144E+01
 0.57905531041E+01 0.69461057966E+01 0.88734667192E+01 0.11815519914E+02 0.15716646805E+02
 0.20223593742E+02 0.24873562079E+02 0.29329714735E+02 0.33466195811E+02 0.37231276559E+02
 0.46110606092E+02 0.48106439824E+02 0.48106749133E+02 0.46111257829E+02 0.42651774465E+02
 0.38439927672E+02 0.33959450033E+02 0.29329380785E+02 0.24507037685E+02 0.19600140866E+02
 0.14988148020E+02 0.11156007408E+02 0.84061586167E+01 0.66939807975E+01 0.57058421237E+01
 0.52372273651E+01 0.52372300972E+01 0.57058546550E+01 0.66940053855E+01 0.84061710502E+01
 0.11155953912E+02 0.14988007468E+02 0.19600010445E+02 0.24507103486E+02 0.29329718120E+02
 0.33959844378E+02 0.38439990413E+02 0.42651330973E+02 0.51517891559E+02 0.52785502360E+02
 0.51519173038E+02 0.48106748835E+02 0.43457008218E+02 0.38439839842E+02 0.33465276678E+02
 0.28498735282E+02 0.23424185127E+02 0.18390842779E+02 0.13844832050E+02 0.10260520340E+02
 0.78370829032E+01 0.64045079691E+01 0.56234254045E+01 0.53717227180E+01 0.56233815959E+01
 0.64045035309E+01 0.78371211637E+01 0.10260476587E+02 0.13844657121E+02 0.18390766050E+02
 0.23424572106E+02 0.28499646883E+02 0.33466202668E+02 0.38439993679E+02 0.43456008721E+02
 0.48105069565E+02 0.55543048288E+02 0.55543620099E+02 0.52785502157E+02 0.48106440122E+02
 0.42651923346E+02 0.37230883321E+02 0.32037502054E+02 0.26886133341E+02 0.21679436524E+02
 0.16681451336E+02 0.12398632034E+02 0.92336151360E+01 0.72319662561E+01 0.61004109471E+01
 0.55630639598E+01 0.55630093460E+01 0.61003392774E+01 0.72319951126E+01 0.92336738723E+01
 0.12398571877E+02 0.16681359457E+02 0.21679661670E+02 0.26886873386E+02 0.32038423729E+02
 0.37231285050E+02 0.42651335618E+02 0.48105071029E+02 0.52784125028E+02 0.55543048090E+02
 0.52784124397E+02 0.48105069469E+02 0.42651333055E+02 0.37231282026E+02 0.32038421027E+02
 0.26886871501E+02 0.21679660617E+02 0.16681358985E+02 0.12398571756E+02 0.92336739836E+01
 0.72319953602E+01 0.61003395225E+01 0.55630094386E+01 0.55630638032E+01 0.61004105805E+01
 0.72319658080E+01 0.92336147637E+01 0.12398631870E+02 0.16681451515E+02 0.21679437247E+02
 0.26886134802E+02 0.32037504197E+02 0.37230885671E+02 0.42651925214E+02 0.48106441090E+02
 0.52785502371E+02 0.55543620010E+02 0.52784124721E+02 0.49129486805E+02 0.44183699679E+02
 0.38914119255E+02 0.33785071162E+02 0.28757111920E+02 0.23670078146E+02 0.18626272416E+02
 0.14048796228E+02 0.10416325115E+02 0.79458971204E+01 0.64831088599E+01 0.56876826824E+01
 0.54309269626E+01 0.56877237494E+01 0.64831073840E+01 0.79458621838E+01 0.10416389095E+02
 0.14048966214E+02 0.18626230662E+02 0.23669415277E+02 0.28755862822E+02 0.33783956363E+02
 0.38914097532E+02 0.44185139725E+02 0.49131707212E+02 0.52785770629E+02 0.54145239160E+02
 0.48105070250E+02 0.44183699848E+02 0.39508520413E+02 0.34693894798E+02 0.29894612307E+02
 0.25016395387E+02 0.20083246280E+02 0.15416923475E+02 0.11494599698E+02 0.86462885709E+01
 0.68602446876E+01 0.58351111371E+01 0.53478346319E+01 0.53478373335E+01 0.58351017491E+01
 0.68602173263E+01 0.86463095945E+01 0.11494750995E+02 0.15417139512E+02 0.20083249726E+02
 0.25015911538E+02 0.29893737979E+02 0.34693215878E+02 0.39508709984E+02 0.44184864861E+02
 0.48106492801E+02 0.50392028342E+02 0.50391390399E+02 0.42651333819E+02 0.38914118984E+02
 0.34693894282E+02 0.30276749051E+02 0.25691478230E+02 0.20974594988E+02 0.16381568566E+02
 0.12349156842E+02 0.92572944447E+01 0.72064688712E+01 0.59823362351E+01 0.53041912822E+01
 0.50875460332E+01 0.53042364758E+01 0.59823400513E+01 0.72063935887E+01 0.92572389437E+01
 0.12349266105E+02 0.16381856352E+02 0.20974889209E+02 0.25691564746E+02 0.30276567142E+02
 0.34693582900E+02 0.38913876532E+02 0.42651245928E+02 0.45318367037E+02 0.46296129023E+02
 0.45318363195E+02 0.37231282221E+02 0.33785070150E+02 0.29894611176E+02 0.25691477719E+02
 0.21273452951E+02 0.16876870575E+02 0.12893760945E+02 0.97074766261E+01 0.74875481188E+01
 0.61080200005E+01 0.52856613808E+01 0.48999438185E+01 0.48999822920E+01 0.52857245897E+01
 0.61080096840E+01 0.74874278869E+01 0.97073159155E+01 0.12893690232E+02 0.16877002751E+02
 0.21273808954E+02 0.25691925739E+02 0.29894876362E+02 0.33784892273E+02 0.37230659774E+02
 0.39923615163E+02 0.41431618429E+02 0.41431932160E+02 0.39924327651E+02 0.32038420774E+02
 0.28757110738E+02 0.25016394405E+02 0.20974594729E+02 0.16876870767E+02 0.13080313111E+02
 0.99455186780E+01 0.76708427364E+01 0.61979704160E+01 0.52793797585E+01 0.47724196126E+01
 0.46127722720E+01 0.47724256233E+01 0.52794301019E+01 0.61980446977E+01 0.76708282620E+01
 0.99453258142E+01 0.13080011353E+02 0.16876663561E+02 0.20974638970E+02 0.25016657332E+02
 0.28757410855E+02 0.32038595051E+02 0.34683078900E+02 0.36440629688E+02 0.37062057018E+02
 0.36440664384E+02 0.34683055009E+02 0.26886871733E+02 0.23670077970E+02 0.20083246535E+02
 0.16381569409E+02 0.12893761951E+02 0.99455193098E+01 0.77344739055E+01 0.62448576071E+01
 0.52774510338E+01 0.46932257700E+01 0.44249091314E+01 0.44248768997E+01 0.46931973739E+01
 0.52775427327E+01 0.62450775434E+01 0.77346829488E+01 0.99455379865E+01 0.12893498966E+02
 0.16381081467E+02 0.20082741029E+02 0.23669860064E+02 0.26887182977E+02 0.29543796048E+02
 0.31465034264E+02 0.32481993024E+02 0.32481625423E+02 0.31464182746E+02 0.29543005210E+02
 0.21679662411E+02 0.18626274159E+02 0.15416925529E+02 0.12349159033E+02 0.97074785150E+01
 0.76708439887E+01 0.62448581705E+01 0.52769750231E+01 0.46550764032E+01 0.43194979954E+01
 0.42148386388E+01 0.43194409259E+01 0.46550081385E+01 0.52770022439E+01 0.62450946328E+01
 0.76712732371E+01 0.97078709934E+01 0.12349193706E+02 0.15416471399E+02 0.18625572955E+02
 0.21679191645E+02 0.24327121331E+02 0.26375770269E+02 0.27675257290E+02 0.28121166083E+02
 0.27674779276E+02 0.26375246052E+02 0.24327034473E+02 0.16681362723E+02 0.14048799870E+02
 0.11494603203E+02 0.92572975255E+01 0.74875505058E+01 0.61979720450E+01 0.52774519969E+01
 0.46550768160E+01 0.42855820140E+01 0.41169765582E+01 0.41169750485E+01 0.42855188987E+01
 0.46548869105E+01 0.52772383073E+01 0.61979814806E+01 0.74879324760E+01 0.92579090587E+01
 0.11495083467E+02 0.14048844195E+02 0.16680929928E+02 0.19133569801E+02 0.21180043567E+02
 0.22645237649E+02 0.23409070220E+02 0.23409240967E+02 0.22645723915E+02 0.21180744228E+02
 0.19134276164E+02 0.12398576866E+02 0.10416329798E+02 0.86462926487E+01 0.72064721859E+01
 0.61080225516E+01 0.52793816120E+01 0.46932269987E+01 0.43194987329E+01 0.41169769116E+01
 0.40534779779E+01 0.41170553194E+01 0.43194883698E+01 0.46929792168E+01 0.52789527177E+01
 0.61076797913E+01 0.72065059727E+01 0.86467862718E+01 0.10417054456E+02 0.12399092268E+02
 0.14403830502E+02 0.16221704531E+02 0.17664562694E+02 0.18589364953E+02 0.18907863835E+02
 0.18590117432E+02 0.17665612268E+02 0.16222451709E+02 0.14403914268E+02 0.92336794376E+01
 0.79459018822E+01 0.68602486957E+01 0.59823395586E+01 0.52856640337E+01 0.47724216485E+01
 0.44249106559E+01 0.42148397513E+01 0.41169758039E+01 0.41170557176E+01 0.42150373330E+01
 0.44250954869E+01 0.47724068308E+01 0.52853263091E+01 0.59817729470E+01 0.68597838077E+01
 0.79458929174E+01 0.92341903183E+01 0.10640131074E+02 0.12025237120E+02 0.13233712648E+02
 0.14125524807E+02 0.14598299873E+02 0.14598532467E+02 0.14125976657E+02 0.13233887711E+02
 0.12024871389E+02 0.10639443730E+02 0.72320004761E+01 0.64831133756E+01 0.58351150953E+01
 0.53041946648E+01 0.48999466746E+01 0.46127746737E+01 0.44248789059E+01 0.43194425656E+01
 0.42855201693E+01 0.43194892454E+01 0.44250959343E+01 0.46131865389E+01 0.49003232180E+01
 0.53041943793E+01 0.58346164030E+01 0.64823862794E+01 0.72315181652E+01 0.80758413974E+01
 0.89635313951E+01 0.98049544556E+01 0.10498415499E+02 0.10954519920E+02 0.11113448742E+02
 0.10954290241E+02 0.10497927211E+02 0.98042997261E+01 0.89630045176E+01 0.80757782051E+01
 0.61003443867E+01 0.56876871256E+01 0.53478386654E+01 0.50875497057E+01 0.48999856432E+01
 0.47724286605E+01 0.46932000721E+01 0.46550104534E+01 0.46548887935E+01 0.46929806262E+01
 0.47724077430E+01 0.49003236427E+01 0.50881053851E+01 0.53482618566E+01 0.56876765284E+01
 0.60998666432E+01 0.65608515756E+01 0.70437691389E+01 0.75226049357E+01 0.79505947306E+01
 0.82739816555E+01 0.84479729359E+01 0.84477081744E+01 0.82733821014E+01 0.79500974522E+01
 0.75225693963E+01 0.70442335028E+01 0.65615274874E+01 0.55630141496E+01 0.54309314866E+01
 0.53478417140E+01 0.53042407236E+01 0.52857286646E+01 0.52794339235E+01 0.52775462037E+01
 0.52770052702E+01 0.52772408100E+01 0.52789546412E+01 0.52853276332E+01 0.53041951371E+01
 0.53482621499E+01 0.54316134663E+01 0.55635166789E+01 0.57426238603E+01 0.59547727645E+01
 0.61757864972E+01 0.63787823911E+01 0.65435173167E+01 0.66516916548E+01 0.66893478508E+01
 0.66515160363E+01 0.65434786897E+01 0.63791540663E+01 0.61764698786E+01 0.59553336136E+01
 0.57426632181E+01 0.55630685493E+01 0.56877285744E+01 0.58351066326E+01 0.59823449168E+01
 0.61080144186E+01 0.61980491995E+01 0.62450816877E+01 0.62450982771E+01 0.61979844957E+01
 0.61076820970E+01 0.59817745310E+01 0.58346173172E+01 0.56876769152E+01 0.55635167513E+01
 0.54787338594E+01 0.54388234644E+01 0.54374695965E+01 0.54603726546E+01 0.54914107800E+01
 0.55178899317E+01 0.55325788174E+01 0.55327016570E+01 0.55182434386E+01 0.54919031336E+01
 0.54607807921E+01 0.54375227447E+01 0.54384203995E+01 0.54780941954E+01 0.61004154792E+01
 0.64831124588E+01 0.68602225832E+01 0.72063990062E+01 0.74874333692E+01 0.76708336482E+01
 0.77346880129E+01 0.76712777092E+01 0.74879361037E+01 0.72065086041E+01 0.68597854507E+01
 0.64823870979E+01 0.60998668781E+01 0.57426237687E+01 0.54388233075E+01 0.52013196429E+01
 0.50284146767E+01 0.49097516249E+01 0.48334270977E+01 0.47906887982E+01 0.47769995395E+01
 0.47909793552E+01 0.48337431564E+01 0.49097712388E+01 0.50280165167E+01 0.52006965374E+01
 0.54383684288E+01 0.57426627242E+01 0.72319707489E+01 0.79458674878E+01 0.86463152513E+01
 0.92572449317E+01 0.97073221661E+01 0.99453321363E+01 0.99455440263E+01 0.97078762928E+01
 0.92579132035E+01 0.86467890497E+01 0.79458943929E+01 0.72315186297E+01 0.65608514071E+01
 0.59547722910E+01 0.54374690911E+01 0.50284143513E+01 0.47262693623E+01 0.45180986458E+01
 0.43888661949E+01 0.43271813910E+01 0.43272096911E+01 0.43888426527E+01 0.45178457673E+01
 0.47258090374E+01 0.50280347355E+01 0.54374941538E+01 0.59552615833E+01 0.65615265584E+01
 0.92336194954E+01 0.10416394085E+02 0.11494756373E+02 0.12349272056E+02 0.12893696801E+02
 0.13080018270E+02 0.12893505640E+02 0.12349199410E+02 0.11495087624E+02 0.10417056858E+02
 0.92341911677E+01 0.80758411608E+01 0.70437683246E+01 0.61757854665E+01 0.54603716539E+01
 0.49097508537E+01 0.45180982285E+01 0.42635349759E+01 0.41221820969E+01 0.40770265869E+01
 0.41220248165E+01 0.42632534770E+01 0.45178421660E+01 0.49097694192E+01 0.54608079691E+01
 0.61764646634E+01 0.70442541449E+01 0.80757767325E+01 0.12398635113E+02 0.14048969518E+02
 0.15417143441E+02 0.16381861415E+02 0.16877009019E+02 0.16876670499E+02 0.16381088095E+02
 0.15416476700E+02 0.14048847521E+02 0.12399093542E+02 0.10640130718E+02 0.89635300668E+01
 0.75226032356E+01 0.63787806725E+01 0.54914091815E+01 0.48334258014E+01 0.43888653103E+01
 0.41221816608E+01 0.39988641751E+01 0.39987921913E+01 0.41220573420E+01 0.43888849193E+01
 0.48337150950E+01 0.54918851953E+01 0.63791656344E+01 0.75226023483E+01 0.89630618410E+01
 0.10639441215E+02 0.16681451551E+02 0.18626230915E+02 0.20083251332E+02 0.20974892859E+02
 0.21273814454E+02 0.20974645271E+02 0.20082746706E+02 0.18625576824E+02 0.16680931464E+02
 0.14403829902E+02 0.12025235066E+02 0.98049517478E+01 0.79505919841E+01 0.65435148153E+01
 0.55178876805E+01 0.47906869392E+01 0.43271800264E+01 0.40770257233E+01 0.39987917790E+01
 0.40770245904E+01 0.43273039554E+01 0.47909822507E+01 0.55181693626E+01 0.65434846520E+01
 0.79501346354E+01 0.98042986889E+01 0.12024809549E+02 0.14403909941E+02 0.21679433123E+02
 0.23669412157E+02 0.25015910931E+02 0.25691567119E+02 0.25691930264E+02 0.25016662337E+02
 0.23669863837E+02 0.21679193118E+02 0.19133568803E+02 0.16221701614E+02 0.13233708700E+02
 0.10498411353E+02 0.82739778492E+01 0.66516883586E+01 0.55325759118E+01 0.47769971275E+01
 0.43272078647E+01 0.41220235369E+01 0.41220565091E+01 0.43273035121E+01 0.47771082671E+01
 0.55325711817E+01 0.66514310660E+01 0.82735060737E+01 0.10498021862E+02 0.13233767203E+02
 0.16222279221E+02 0.19134269550E+02 0.26886127277E+02 0.28755857537E+02 0.29893736303E+02
 0.30276568834E+02 0.29894879792E+02 0.28757413922E+02 0.26887184075E+02 0.24327119850E+02
 0.21180039825E+02 0.17664557537E+02 0.14125519171E+02 0.10954514539E+02 0.84479682124E+01
 0.66893438411E+01 0.55326981518E+01 0.47909764451E+01 0.43888403991E+01 0.42632517708E+01
 0.43888836018E+01 0.47909812617E+01 0.55325706208E+01 0.66890813154E+01 0.84477267389E+01
 0.10954558035E+02 0.14126026168E+02 0.17665392541E+02 0.21180704168E+02 0.24327025996E+02
 0.32037495617E+02 0.33783951080E+02 0.34693214557E+02 0.34693584369E+02 0.33784894326E+02
 0.32038595662E+02 0.29543794180E+02 0.26375765970E+02 0.22645231646E+02 0.18589358161E+02
 0.14598293088E+02 0.11113442513E+02 0.84477027815E+01 0.66515114654E+01 0.55182394390E+01
 0.48337398333E+01 0.45178431144E+01 0.45178399877E+01 0.48337131975E+01 0.55181677452E+01
 0.66514299180E+01 0.84477262200E+01 0.11113699746E+02 0.14598799642E+02 0.18589931438E+02
 0.22645546238E+02 0.26375542085E+02 0.29542996278E+02 0.37230878692E+02 0.38914094069E+02
 0.39508709736E+02 0.38913877632E+02 0.37230660029E+02 0.34683076933E+02 0.31465029873E+02
 0.27675251075E+02 0.23409063003E+02 0.18907856320E+02 0.14598525186E+02 0.10954283590E+02
 0.82733763181E+01 0.65434737430E+01 0.54918987790E+01 0.49097675908E+01 0.47258059890E+01
 0.49097667077E+01 0.54918826744E+01 0.65434824716E+01 0.82735045177E+01 0.10954557484E+02
 0.14598799933E+02 0.18907898903E+02 0.23408772102E+02 0.27674783292E+02 0.31464685230E+02
 0.34683047380E+02 0.42651921279E+02 0.44185138504E+02 0.44184865299E+02 0.42651246070E+02
 0.39923613469E+02 0.36440625744E+02 0.32481987324E+02 0.28121159363E+02 0.23409233756E+02
 0.18590110049E+02 0.14125969412E+02 0.10497920485E+02 0.79500915376E+01 0.63791489234E+01
 0.54607762292E+01 0.50280126072E+01 0.50280312720E+01 0.54608047015E+01 0.63791625972E+01
 0.79501320783E+01 0.10498020493E+02 0.14126026637E+02 0.18589933449E+02 0.23408774121E+02
 0.28120655499E+02 0.32481814157E+02 0.36440974327E+02 0.39924322513E+02 0.48106439834E+02
 0.49131707312E+02 0.48106492980E+02 0.45318365872E+02 0.41431615360E+02 0.37062052437E+02
 0.32481620024E+02 0.27674773432E+02 0.22645717621E+02 0.17665605516E+02 0.13233880794E+02
 0.98042931662E+01 0.75225635709E+01 0.61764646769E+01 0.54375180938E+01 0.52006923900E+01
 0.54374902592E+01 0.61764609220E+01 0.75225989133E+01 0.98042962236E+01 0.13233766937E+02
 0.17665395236E+02 0.22645551241E+02 0.27674788538E+02 0.32481817315E+02 0.37062292647E+02
 0.41431748806E+02 0.45318360643E+02 0.52785502366E+02 0.52785770822E+02 0.50392027728E+02
 0.46296126998E+02 0.41431928993E+02 0.36440660751E+02 0.31464178973E+02 0.26375241859E+02
 0.21180739144E+02 0.16222445666E+02 0.12024864898E+02 0.89629983022E+01 0.70442279359E+01
 0.59553284945E+01 0.54384157259E+01 0.54383640340E+01 0.59552572858E+01 0.70442500273E+01
 0.89630582472E+01 0.12024807774E+02 0.16222280804E+02 0.21180709638E+02 0.26375550176E+02
 0.31464693320E+02 0.36440979945E+02 0.41431751101E+02 0.46295526206E+02 0.50391389631E+02
 0.55543620097E+02 0.54145238934E+02 0.50391389326E+02 0.45318361371E+02 0.39924325706E+02
 0.34683053351E+02 0.29543003494E+02 0.24327031840E+02 0.19134272005E+02 0.14403908765E+02
 0.10639437710E+02 0.80757724866E+01 0.65615222631E+01 0.57426582889E+01 0.54780895024E+01
 0.57426580681E+01 0.65615219520E+01 0.80757722675E+01 0.10639437752E+02 0.14403909185E+02
 0.19134272943E+02 0.24327033482E+02 0.29543005908E+02 0.34683056240E+02 0.39924328397E+02
 0.45318363210E+02 0.50391390149E+02 0.54145239120E+02 0.51517891930E+02 0.48105069678E+02
 0.43456008026E+02 0.38439992155E+02 0.33466200786E+02 0.28499645180E+02 0.23424570835E+02
 0.18390765183E+02 0.13844656562E+02 0.10260476297E+02 0.78371211147E+01 0.64045036176E+01
 0.56233816572E+01 0.53717225914E+01 0.56234250268E+01 0.64045074176E+01 0.78370823330E+01
 0.10260519918E+02 0.13844831883E+02 0.18390842946E+02 0.23424185706E+02 0.28498736254E+02
 0.33465277781E+02 0.38439840610E+02 0.43457008316E+02 0.48106748397E+02 0.51519172606E+02
 0.52785502385E+02 0.48105070233E+02 0.44183699783E+02 0.39508520205E+02 0.34693894438E+02
 0.29894611840E+02 0.25016394876E+02 0.20083245784E+02 0.15416923042E+02 0.11494599355E+02
 0.86462883154E+01 0.68602444912E+01 0.58351109605E+01 0.53478344600E+01 0.53478371648E+01
 0.58351015958E+01 0.68602172098E+01 0.86463095414E+01 0.11494751011E+02 0.15417139556E+02
 0.20083249707E+02 0.25015911332E+02 0.29893737487E+02 0.34693215090E+02 0.39508709015E+02
 0.44184863915E+02 0.48106492081E+02 0.50392027943E+02 0.50391390268E+02 0.43456009049E+02
 0.39508520418E+02 0.35109966037E+02 0.30583279375E+02 0.25950698580E+02 0.21215290218E+02