   1   1   1   0
  0.1509714E+02  0.2774192E-09  0.2774192E-09  0.2774192E-09  0.5000000E-15
   1.0000000000000000E-004
  CAR 
 unknown system                          
     45.53699601     -0.96096798  301     11.27659575      1.00000000
     -0.961  0.0000E+00  0.0000E+00
     -0.806  0.0000E+00  0.0000E+00
     -0.651  0.0000E+00  0.0000E+00
     -0.496  0.0000E+00  0.0000E+00
     -0.341  0.0000E+00  0.0000E+00
     -0.186  0.0000E+00  0.0000E+00
     -0.031  0.0000E+00  0.0000E+00
      0.124  0.0000E+00  0.0000E+00
      0.279  0.0000E+00  0.0000E+00
      0.434  0.0000E+00  0.0000E+00
      0.589  0.0000E+00  0.0000E+00
      0.744  0.0000E+00  0.0000E+00
      0.899  0.9206E-14  0.1427E-14
      1.054  0.6647E-04  0.1030E-04
      1.209  0.2374E-01  0.3690E-02
      1.364  0.1398E-02  0.3906E-02
      1.519  0.2904E-10  0.3906E-02
      1.674  0.1240E-02  0.4098E-02
      1.829  0.1943E+00  0.3422E-01
      1.984  0.1043E+00  0.5038E-01
      2.139  0.5298E-01  0.5859E-01
      2.294  0.1405E-06  0.5859E-01
      2.449  0.2152E-12  0.5859E-01
      2.604  0.1055E-02  0.5876E-01
      2.759  0.2875E+00  0.1033E+00
      2.914  0.1388E-01  0.1055E+00
      3.069  0.1819E-03  0.1055E+00
      3.224  0.6522E+00  0.2066E+00
      3.379  0.1541E+00  0.2305E+00
      3.534  0.5930E-07  0.2305E+00
      3.689  0.1930E-09  0.2305E+00
      3.844  0.8763E-02  0.2318E+00
      3.999  0.3375E+00  0.2841E+00
      4.154  0.5706E+00  0.3726E+00
      4.309  0.3727E+00  0.4303E+00
      4.464  0.9843E+00  0.5829E+00
      4.619  0.1822E+01  0.8654E+00
      4.774  0.7491E+00  0.9815E+00
      4.929  0.4463E+00  0.1051E+01
      5.084  0.1170E+01  0.1232E+01
      5.239  0.1619E+01  0.1483E+01
      5.394  0.1695E+01  0.1746E+01
      5.549  0.2516E+01  0.2136E+01
      5.704  0.6602E+00  0.2238E+01
      5.859  0.3793E+00  0.2297E+01
      6.014  0.6591E+00  0.2399E+01
      6.169  0.1563E+01  0.2641E+01
      6.324  0.1114E+01  0.2814E+01
      6.479  0.7288E+00  0.2927E+01
      6.634  0.1566E+01  0.3169E+01
      6.789  0.2079E+01  0.3492E+01
      6.944  0.1160E+01  0.3671E+01
      7.099  0.2135E+01  0.4002E+01
      7.254  0.1706E+01  0.4267E+01
      7.409  0.3169E+00  0.4316E+01
      7.564  0.1557E+01  0.4557E+01
      7.719  0.2676E+01  0.4972E+01
      7.874  0.1849E+01  0.5259E+01
      8.029  0.3353E+01  0.5778E+01
      8.184  0.1471E+01  0.6006E+01
      8.339  0.1085E+01  0.6175E+01
      8.494  0.4945E+00  0.6251E+01
      8.649  0.1046E+01  0.6413E+01
      8.804  0.1015E+01  0.6571E+01
      8.959  0.1998E+01  0.6880E+01
      9.114  0.8487E+00  0.7012E+01
      9.269  0.2355E+01  0.7377E+01
      9.424  0.1709E+01  0.7642E+01
      9.579  0.1083E+01  0.7810E+01
      9.734  0.1606E+01  0.8059E+01
      9.889  0.8963E+00  0.8197E+01
     10.044  0.4243E+00  0.8263E+01
     10.199  0.5397E+00  0.8347E+01
     10.354  0.7351E+00  0.8461E+01
     10.509  0.9430E+00  0.8607E+01
     10.664  0.2150E+01  0.8940E+01
     10.819  0.1881E+01  0.9232E+01
     10.974  0.1741E+01  0.9502E+01
     11.129  0.2371E+01  0.9869E+01
     11.283  0.9500E+00  0.1002E+02
     11.438  0.2808E+01  0.1045E+02
     11.593  0.8005E+00  0.1058E+02
     11.748  0.3484E+00  0.1063E+02
     11.903  0.4485E+00  0.1070E+02
     12.058  0.5736E-04  0.1070E+02
     12.213  0.0000E+00  0.1070E+02
     12.368  0.0000E+00  0.1070E+02
     12.523  0.0000E+00  0.1070E+02
     12.678  0.7194E-05  0.1070E+02
     12.833  0.3404E+00  0.1075E+02
     12.988  0.2645E+00  0.1079E+02
     13.143  0.1382E+00  0.1081E+02
     13.298  0.1903E+01  0.1111E+02
     13.453  0.6919E+00  0.1122E+02
     13.608  0.6445E-01  0.1123E+02
     13.763  0.5483E-08  0.1123E+02
     13.918  0.5662E-12  0.1123E+02
     14.073  0.2364E-02  0.1123E+02
     14.228  0.5770E+00  0.1132E+02
     14.383  0.5112E+00  0.1140E+02
     14.538  0.1192E+00  0.1141E+02
     14.693  0.4960E-07  0.1141E+02
     14.848  0.0000E+00  0.1141E+02
     15.003  0.6545E-07  0.1141E+02
     15.158  0.1280E+00  0.1143E+02
     15.313  0.4770E+00  0.1151E+02
     15.468  0.5197E+00  0.1159E+02
     15.623  0.8517E-01  0.1160E+02
     15.778  0.5028E+00  0.1168E+02
     15.933  0.1019E+00  0.1170E+02
     16.088  0.1745E-01  0.1170E+02
     16.243  0.2842E+00  0.1174E+02
     16.398  0.7501E-03  0.1174E+02
     16.553  0.7051E-03  0.1174E+02
     16.708  0.1054E+01  0.1191E+02
     16.863  0.5670E+00  0.1199E+02
     17.018  0.1992E+00  0.1202E+02
     17.173  0.3608E+00  0.1208E+02
     17.328  0.3577E-01  0.1209E+02
     17.483  0.3006E+00  0.1213E+02
     17.638  0.3043E+00  0.1218E+02
     17.793  0.3653E-05  0.1218E+02
     17.948  0.1366E-02  0.1218E+02
     18.103  0.2895E+00  0.1222E+02
     18.258  0.1165E-01  0.1223E+02
     18.413  0.9186E+00  0.1237E+02
     18.568  0.9594E+00  0.1252E+02
     18.723  0.2684E+00  0.1256E+02
     18.878  0.9724E+00  0.1271E+02
     19.033  0.7043E-01  0.1272E+02
     19.188  0.2876E+00  0.1277E+02
     19.343  0.1068E-02  0.1277E+02
     19.498  0.3713E-03  0.1277E+02
     19.653  0.2755E+00  0.1281E+02
     19.808  0.2652E-01  0.1281E+02
     19.963  0.2924E-05  0.1281E+02
     20.118  0.1301E+00  0.1283E+02
     20.273  0.7432E+00  0.1295E+02
     20.428  0.8872E-02  0.1295E+02
     20.583  0.2942E+00  0.1299E+02
     20.738  0.9340E+00  0.1314E+02
     20.893  0.5828E+00  0.1323E+02
     21.048  0.3605E-02  0.1323E+02
     21.203  0.1855E+00  0.1326E+02
     21.358  0.4284E+00  0.1333E+02
     21.513  0.2915E+00  0.1337E+02
     21.668  0.1884E-02  0.1337E+02
     21.823  0.7124E+00  0.1348E+02
     21.978  0.5778E+00  0.1357E+02
     22.133  0.4960E+00  0.1365E+02
     22.288  0.2838E-01  0.1365E+02
     22.443  0.4258E-03  0.1365E+02
     22.598  0.1016E+01  0.1381E+02
     22.753  0.2915E+00  0.1386E+02
     22.908  0.5283E-01  0.1386E+02
     23.063  0.1510E+00  0.1389E+02
     23.218  0.5651E+00  0.1397E+02
     23.373  0.3132E+00  0.1402E+02
     23.528  0.6288E+00  0.1412E+02
     23.683  0.3020E+00  0.1417E+02
     23.838  0.1482E+01  0.1440E+02
     23.993  0.4320E-01  0.1440E+02
     24.148  0.5875E+00  0.1449E+02
     24.303  0.1134E+00  0.1451E+02
     24.458  0.3504E+00  0.1457E+02
     24.613  0.3134E+00  0.1461E+02
     24.768  0.9457E+00  0.1476E+02
     24.923  0.1043E+01  0.1492E+02
     25.078  0.1689E-01  0.1493E+02
     25.233  0.3146E-06  0.1493E+02
     25.388  0.1866E+00  0.1495E+02
     25.543  0.5094E+00  0.1503E+02
     25.698  0.9302E+00  0.1518E+02
     25.853  0.8940E+00  0.1532E+02
     26.008  0.2093E+00  0.1535E+02
     26.163  0.7334E+00  0.1546E+02
     26.318  0.4709E+00  0.1554E+02
     26.473  0.2353E+01  0.1590E+02
     26.628  0.3914E+00  0.1596E+02
     26.783  0.1198E-01  0.1596E+02
     26.938  0.7812E+00  0.1608E+02
     27.093  0.1410E+01  0.1630E+02
     27.248  0.2434E+00  0.1634E+02
     27.403  0.5636E+00  0.1643E+02
     27.558  0.1956E+01  0.1673E+02
     27.713  0.6899E+00  0.1684E+02
     27.868  0.1438E+00  0.1686E+02
     28.023  0.1983E+00  0.1689E+02
     28.178  0.1031E-04  0.1689E+02
     28.333  0.1546E-04  0.1689E+02
     28.488  0.6562E+00  0.1699E+02
     28.643  0.1056E+01  0.1716E+02
     28.798  0.4273E-01  0.1716E+02
     28.953  0.1370E+00  0.1718E+02
     29.108  0.4925E+00  0.1726E+02
     29.263  0.1014E+01  0.1742E+02
     29.418  0.1138E+01  0.1759E+02
     29.573  0.8059E+00  0.1772E+02
     29.728  0.4669E-03  0.1772E+02
     29.883  0.4063E+00  0.1778E+02
     30.038  0.8034E+00  0.1791E+02
     30.193  0.4271E+00  0.1797E+02
     30.348  0.4980E+00  0.1805E+02
     30.503  0.4122E+00  0.1811E+02
     30.658  0.3208E+00  0.1816E+02
     30.813  0.4620E+00  0.1823E+02
     30.968  0.8626E+00  0.1837E+02
     31.123  0.6137E+00  0.1846E+02
     31.278  0.3136E-01  0.1847E+02
     31.433  0.8637E+00  0.1860E+02
     31.588  0.8798E+00  0.1874E+02
     31.743  0.7196E+00  0.1885E+02
     31.898  0.1936E+01  0.1915E+02
     32.053  0.9640E+00  0.1930E+02
     32.208  0.3149E-01  0.1930E+02
     32.363  0.8757E-01  0.1932E+02
     32.518  0.9587E-01  0.1933E+02
     32.673  0.7218E+00  0.1944E+02
     32.828  0.5591E+00  0.1953E+02
     32.983  0.8317E+00  0.1966E+02
     33.138  0.5750E+00  0.1975E+02
     33.293  0.5424E-01  0.1976E+02
     33.448  0.6986E+00  0.1987E+02
     33.603  0.9537E-02  0.1987E+02
     33.758  0.1060E+01  0.2003E+02
     33.913  0.4705E+00  0.2011E+02
     34.067  0.7750E+00  0.2023E+02
     34.222  0.2756E+00  0.2027E+02
     34.377  0.2371E+00  0.2030E+02
     34.532  0.3688E-02  0.2031E+02
     34.687  0.3473E+00  0.2036E+02
     34.842  0.7243E+00  0.2047E+02
     34.997  0.1093E+00  0.2049E+02
     35.152  0.2656E-03  0.2049E+02
     35.307  0.5165E+00  0.2057E+02
     35.462  0.8813E-01  0.2058E+02
     35.617  0.1006E+01  0.2074E+02
     35.772  0.2022E+01  0.2105E+02
     35.927  0.2965E+00  0.2110E+02
     36.082  0.2220E-02  0.2110E+02
     36.237  0.4896E-01  0.2111E+02
     36.392  0.1778E+00  0.2113E+02
     36.547  0.4024E-04  0.2113E+02
     36.702  0.5101E+00  0.2121E+02
     36.857  0.6998E+00  0.2132E+02
     37.012  0.5122E+00  0.2140E+02
     37.167  0.1666E+00  0.2143E+02
     37.322  0.9723E+00  0.2158E+02
     37.477  0.1012E+01  0.2173E+02
     37.632  0.1754E+01  0.2200E+02
     37.787  0.2102E+00  0.2204E+02
     37.942  0.3009E+00  0.2208E+02
     38.097  0.1242E+01  0.2228E+02
     38.252  0.1803E+00  0.2230E+02
     38.407  0.1177E-01  0.2231E+02
     38.562  0.2925E+00  0.2235E+02
     38.717  0.3166E+00  0.2240E+02
     38.872  0.1890E+01  0.2269E+02
     39.027  0.7872E+00  0.2282E+02
     39.182  0.1362E+01  0.2303E+02
     39.337  0.1365E+01  0.2324E+02
     39.492  0.3347E+00  0.2329E+02
     39.647  0.6777E+00  0.2340E+02
     39.802  0.7948E+00  0.2352E+02
     39.957  0.3048E+00  0.2357E+02
     40.112  0.1157E-01  0.2357E+02
     40.267  0.1720E+01  0.2383E+02
     40.422  0.1523E+00  0.2386E+02
     40.577  0.1354E+00  0.2388E+02
     40.732  0.4176E+00  0.2394E+02
     40.887  0.1872E+00  0.2397E+02
     41.042  0.1317E-02  0.2397E+02
     41.197  0.1465E+00  0.2400E+02
     41.352  0.3390E-02  0.2400E+02
     41.507  0.1254E-10  0.2400E+02
     41.662  0.0000E+00  0.2400E+02
     41.817  0.0000E+00  0.2400E+02
     41.972  0.0000E+00  0.2400E+02
     42.127  0.0000E+00  0.2400E+02
     42.282  0.0000E+00  0.2400E+02
     42.437  0.0000E+00  0.2400E+02
     42.592  0.0000E+00  0.2400E+02
     42.747  0.0000E+00  0.2400E+02
     42.902  0.0000E+00  0.2400E+02
     43.057  0.0000E+00  0.2400E+02
     43.212  0.2846E-10  0.2400E+02
     43.367  0.1398E-02  0.2400E+02
     43.522  0.2374E-01  0.2400E+02
     43.677  0.6647E-04  0.2400E+02
     43.832  0.0000E+00  0.2400E+02
     43.987  0.0000E+00  0.2400E+02
     44.142  0.0000E+00  0.2400E+02
     44.297  0.0000E+00  0.2400E+02
     44.452  0.0000E+00  0.2400E+02
     44.607  0.0000E+00  0.2400E+02
     44.762  0.0000E+00  0.2400E+02
     44.917  0.0000E+00  0.2400E+02
     45.072  0.0000E+00  0.2400E+02
     45.227  0.0000E+00  0.2400E+02
     45.382  0.0000E+00  0.2400E+02
     45.537  0.0000E+00  0.2400E+02
     45.53699601     -0.96096798  301     11.27659575      1.00000000
     -0.961  0.0000E+00  0.0000E+00  0.0000E+00  0.0000E+00  0.0000E+00  0.0000E+00  0.0000E+00  0.0000E+00  0.0000E+00
     -0.806  0.0000E+00  0.0000E+00  0.0000E+00  0.0000E+00  0.0000E+00  0.0000E+00  0.0000E+00  0.0000E+00  0.0000E+00
     -0.651  0.0000E+00  0.0000E+00  0.0000E+00  0.0000E+00  0.0000E+00  0.0000E+00  0.0000E+00  0.0000E+00  0.0000E+00
     -0.496  0.0000E+00  0.0000E+00  0.0000E+00  0.0000E+00  0.0000E+00  0.0000E+00  0.0000E+00  0.0000E+00  0.0000E+00
     -0.341  0.0000E+00  0.0000E+00  0.0000E+00  0.0000E+00  0.0000E+00  0.0000E+00  0.0000E+00  0.0000E+00  0.0000E+00
     -0.186  0.0000E+00  0.0000E+00  0.0000E+00  0.0000E+00  0.0000E+00  0.0000E+00  0.0000E+00  0.0000E+00  0.0000E+00
     -0.031  0.0000E+00  0.0000E+00  0.0000E+00  0.0000E+00  0.0000E+00  0.0000E+00  0.0000E+00  0.0000E+00  0.0000E+00
      0.124  0.0000E+00  0.0000E+00  0.0000E+00  0.0000E+00  0.0000E+00  0.0000E+00  0.0000E+00  0.0000E+00  0.0000E+00
      0.279  0.0000E+00  0.0000E+00  0.0000E+00  0.0000E+00  0.0000E+00  0.0000E+00  0.0000E+00  0.0000E+00  0.0000E+00
      0.434  0.0000E+00  0.0000E+00  0.0000E+00  0.0000E+00  0.0000E+00  0.0000E+00  0.0000E+00  0.0000E+00  0.0000E+00
      0.589  0.0000E+00  0.0000E+00  0.0000E+00  0.0000E+00  0.0000E+00  0.0000E+00  0.0000E+00  0.0000E+00  0.0000E+00
      0.744  0.0000E+00  0.0000E+00  0.0000E+00  0.0000E+00  0.0000E+00  0.0000E+00  0.0000E+00  0.0000E+00  0.0000E+00
      0.899  0.7494E-14  0.2085E-28  0.2157E-28  0.1160E-28  0.7557E-28  0.8391E-29  0.2060E-28  0.1904E-28  0.2514E-27
      1.054  0.5411E-04  0.1505E-18  0.1557E-18  0.8375E-19  0.5457E-18  0.6059E-19  0.1488E-18  0.1375E-18  0.1815E-17
      1.209  0.1932E-01  0.5376E-16  0.5561E-16  0.2991E-16  0.1949E-15  0.2164E-16  0.5313E-16  0.4910E-16  0.6483E-15
      1.364  0.1138E-02  0.3165E-17  0.3274E-17  0.1761E-17  0.1147E-16  0.1274E-17  0.3128E-17  0.2891E-17  0.3817E-16
      1.519  0.2361E-10  0.6821E-14  0.6821E-14  0.6822E-14  0.3409E-15  0.3409E-15  0.7670E-15  0.6818E-15  0.9375E-15
      1.674  0.9591E-03  0.1476E-04  0.1476E-04  0.1476E-04  0.7376E-06  0.7376E-06  0.1660E-05  0.1475E-05  0.2028E-05
      1.829  0.1503E+00  0.2314E-02  0.2314E-02  0.2314E-02  0.1156E-03  0.1156E-03  0.2601E-03  0.2312E-03  0.3180E-03
      1.984  0.7930E-01  0.1692E-02  0.1693E-02  0.1692E-02  0.1603E-03  0.1603E-03  0.6687E-04  0.8556E-04  0.2949E-04
      2.139  0.4024E-01  0.8739E-03  0.8739E-03  0.8739E-03  0.8451E-04  0.8451E-04  0.3169E-04  0.4225E-04  0.1056E-04
      2.294  0.1067E-06  0.2317E-08  0.2317E-08  0.2317E-08  0.2241E-09  0.2241E-09  0.8404E-10  0.1121E-09  0.2801E-10
      2.449  0.1514E-12  0.6225E-14  0.6226E-14  0.6226E-14  0.7996E-15  0.7995E-15  0.1402E-14  0.1282E-14  0.1643E-14
      2.604  0.7422E-03  0.3052E-04  0.3052E-04  0.3052E-04  0.3920E-05  0.3920E-05  0.6876E-05  0.6285E-05  0.8058E-05
      2.759  0.2022E+00  0.8317E-02  0.8317E-02  0.8317E-02  0.1068E-02  0.1068E-02  0.1873E-02  0.1712E-02  0.2196E-02
      2.914  0.9765E-02  0.4016E-03  0.4016E-03  0.4016E-03  0.5158E-04  0.5158E-04  0.9046E-04  0.8269E-04  0.1060E-03
      3.069  0.1166E-03  0.6225E-05  0.6225E-05  0.6225E-05  0.2316E-05  0.2316E-05  0.3369E-05  0.3158E-05  0.3790E-05
      3.224  0.4188E+00  0.2254E-01  0.2254E-01  0.2254E-01  0.8222E-02  0.8222E-02  0.1148E-01  0.1083E-01  0.1279E-01
      3.379  0.9906E-01  0.5353E-02  0.5353E-02  0.5353E-02  0.1934E-02  0.1934E-02  0.2647E-02  0.2504E-02  0.2932E-02
      3.534  0.3820E-07  0.2080E-08  0.2080E-08  0.2080E-08  0.7369E-09  0.7369E-09  0.9656E-09  0.9198E-09  0.1057E-08
      3.689  0.1031E-09  0.8833E-11  0.8833E-11  0.8832E-11  0.9771E-11  0.9771E-11  0.3664E-11  0.4886E-11  0.1221E-11
      3.844  0.4677E-02  0.3998E-03  0.3998E-03  0.3998E-03  0.4440E-03  0.4440E-03  0.1704E-03  0.2251E-03  0.6090E-04
      3.999  0.1397E+00  0.7876E-02  0.7876E-02  0.7876E-02  0.1931E-01  0.1931E-01  0.2996E-01  0.2783E-01  0.3422E-01
      4.154  0.2614E+00  0.1767E-01  0.1767E-01  0.1767E-01  0.2038E-01  0.2038E-01  0.4433E-01  0.3954E-01  0.5391E-01
      4.309  0.1372E+00  0.9398E-02  0.9398E-02  0.9398E-02  0.3116E-01  0.3116E-01  0.3203E-01  0.3186E-01  0.3238E-01
      4.464  0.3629E+00  0.2830E-01  0.2830E-01  0.2830E-01  0.5848E-01  0.5848E-01  0.9650E-01  0.8889E-01  0.1117E+00
      4.619  0.4543E+00  0.3181E-01  0.3181E-01  0.3181E-01  0.2076E+00  0.2076E+00  0.2184E+00  0.2163E+00  0.2228E+00
      4.774  0.1472E+00  0.1611E-01  0.1612E-01  0.1611E-01  0.1233E+00  0.1233E+00  0.7437E-01  0.8416E-01  0.5481E-01
      4.929  0.6135E-01  0.7783E-02  0.7783E-02  0.7783E-02  0.9750E-01  0.9750E-01  0.4019E-01  0.5166E-01  0.1727E-01
      5.084  0.6311E-01  0.8173E-02  0.8173E-02  0.8173E-02  0.1667E+00  0.1668E+00  0.2170E+00  0.2069E+00  0.2371E+00
      5.239  0.1674E+00  0.2773E-01  0.2773E-01  0.2773E-01  0.2463E+00  0.2463E+00  0.2403E+00  0.2415E+00  0.2379E+00
      5.394  0.2991E+00  0.4229E-01  0.4229E-01  0.4229E-01  0.1468E+00  0.1468E+00  0.2659E+00  0.2420E+00  0.3135E+00
      5.549  0.1982E+00  0.3876E-01  0.3876E-01  0.3876E-01  0.3742E+00  0.3742E+00  0.4093E+00  0.4023E+00  0.4233E+00
      5.704  0.2063E-01  0.1037E-01  0.1037E-01  0.1037E-01  0.9137E-01  0.9137E-01  0.1223E+00  0.1161E+00  0.1346E+00
      5.859  0.2195E-02  0.8642E-02  0.8642E-02  0.8642E-02  0.5376E-01  0.5376E-01  0.6989E-01  0.6666E-01  0.7634E-01
      6.014  0.2607E-02  0.1520E-01  0.1520E-01  0.1520E-01  0.9868E-01  0.9868E-01  0.1187E+00  0.1147E+00  0.1267E+00
      6.169  0.1311E-01  0.3787E-01  0.3787E-01  0.3787E-01  0.2622E+00  0.2622E+00  0.2588E+00  0.2595E+00  0.2574E+00
      6.324  0.4607E-02  0.2615E-01  0.2615E-01  0.2615E-01  0.1691E+00  0.1691E+00  0.1982E+00  0.1924E+00  0.2098E+00
      6.479  0.4858E-01  0.3289E-01  0.3289E-01  0.3289E-01  0.1132E+00  0.1132E+00  0.9353E-01  0.9747E-01  0.8566E-01
      6.634  0.8881E-02  0.3163E-01  0.3163E-01  0.3163E-01  0.2999E+00  0.2999E+00  0.2456E+00  0.2565E+00  0.2239E+00
      6.789  0.1291E-01  0.6793E-01  0.6793E-01  0.6793E-01  0.3436E+00  0.3436E+00  0.3302E+00  0.3329E+00  0.3249E+00
      6.944  0.2082E-01  0.3388E-01  0.3388E-01  0.3388E-01  0.1104E+00  0.1104E+00  0.2376E+00  0.2121E+00  0.2884E+00
      7.099  0.8564E-01  0.4963E-01  0.4963E-01  0.4963E-01  0.3017E+00  0.3017E+00  0.3761E+00  0.3612E+00  0.4059E+00
      7.254  0.4970E-01  0.4625E-01  0.4625E-01  0.4625E-01  0.2920E+00  0.2920E+00  0.2662E+00  0.2714E+00  0.2559E+00
      7.409  0.1737E-02  0.1336E-02  0.1336E-02  0.1336E-02  0.5186E-01  0.5186E-01  0.6345E-01  0.6113E-01  0.6808E-01
      7.564  0.1980E-01  0.1281E-01  0.1281E-01  0.1281E-01  0.3146E+00  0.3146E+00  0.2641E+00  0.2742E+00  0.2439E+00
      7.719  0.3899E-01  0.9702E-01  0.9702E-01  0.9702E-01  0.3540E+00  0.3540E+00  0.4764E+00  0.4519E+00  0.5254E+00
      7.874  0.4709E-01  0.5622E-01  0.5622E-01  0.5622E-01  0.2518E+00  0.2518E+00  0.3320E+00  0.3159E+00  0.3641E+00
      8.029  0.1109E+00  0.6593E-01  0.6593E-01  0.6593E-01  0.5541E+00  0.5540E+00  0.5791E+00  0.5741E+00  0.5892E+00
      8.184  0.2093E-01  0.1123E-01  0.1123E-01  0.1123E-01  0.2568E+00  0.2568E+00  0.2772E+00  0.2731E+00  0.2853E+00
      8.339  0.1061E-01  0.5577E-02  0.5577E-02  0.5577E-02  0.1979E+00  0.1979E+00  0.2049E+00  0.2035E+00  0.2077E+00
      8.494  0.7348E-02  0.2927E-01  0.2927E-01  0.2927E-01  0.5117E-01  0.5117E-01  0.8366E-01  0.7716E-01  0.9666E-01
      8.649  0.2494E-01  0.6044E-01  0.6044E-01  0.6044E-01  0.1708E+00  0.1708E+00  0.1362E+00  0.1431E+00  0.1223E+00
      8.804  0.1270E-01  0.5486E-01  0.5486E-01  0.5486E-01  0.1838E+00  0.1838E+00  0.1304E+00  0.1411E+00  0.1090E+00
      8.959  0.3371E-01  0.5101E-01  0.5101E-01  0.5101E-01  0.4376E+00  0.4376E+00  0.2793E+00  0.3109E+00  0.2159E+00
      9.114  0.4997E-03  0.3537E-02  0.3537E-02  0.3537E-02  0.2235E+00  0.2235E+00  0.1249E+00  0.1446E+00  0.8544E-01
      9.269  0.2310E-01  0.3735E-01  0.3735E-01  0.3735E-01  0.4042E+00  0.4042E+00  0.4309E+00  0.4256E+00  0.4416E+00
      9.424  0.2055E-01  0.1416E-01  0.1416E-01  0.1416E-01  0.4204E+00  0.4204E+00  0.2511E+00  0.2849E+00  0.1833E+00
      9.579  0.6600E-03  0.2796E-02  0.2796E-02  0.2796E-02  0.2329E+00  0.2329E+00  0.1919E+00  0.2001E+00  0.1756E+00
      9.734  0.2010E-01  0.2610E-01  0.2610E-01  0.2610E-01  0.4116E+00  0.4115E+00  0.2129E+00  0.2526E+00  0.1334E+00
      9.889  0.1698E-01  0.3275E-01  0.3275E-01  0.3275E-01  0.1609E+00  0.1609E+00  0.1382E+00  0.1427E+00  0.1291E+00
     10.044  0.3321E-03  0.2250E-02  0.2250E-02  0.2250E-02  0.1297E+00  0.1297E+00  0.5230E-01  0.6778E-01  0.2133E-01
     10.199  0.2055E-02  0.9114E-03  0.9114E-03  0.9114E-03  0.1539E+00  0.1539E+00  0.7623E-01  0.9177E-01  0.4516E-01
     10.354  0.3486E-01  0.2578E-01  0.2578E-01  0.2578E-01  0.1838E+00  0.1838E+00  0.7911E-01  0.1001E+00  0.3723E-01
     10.509  0.9187E-02  0.1193E-01  0.1193E-01  0.1193E-01  0.2662E+00  0.2662E+00  0.1193E+00  0.1487E+00  0.6056E-01
     10.664  0.2008E-02  0.1364E-01  0.1364E-01  0.1364E-01  0.4241E+00  0.4241E+00  0.3970E+00  0.4025E+00  0.3862E+00
     10.819  0.1299E-02  0.7767E-02  0.7767E-02  0.7767E-02  0.2753E+00  0.2753E+00  0.4072E+00  0.3808E+00  0.4599E+00
     10.974  0.4006E-01  0.5160E-01  0.5160E-01  0.5160E-01  0.2345E+00  0.2345E+00  0.3235E+00  0.3057E+00  0.3591E+00
     11.129  0.5235E-01  0.2611E-01  0.2611E-01  0.2611E-01  0.4404E+00  0.4404E+00  0.4297E+00  0.4318E+00  0.4254E+00
     11.283  0.2609E-01  0.8200E-02  0.8200E-02  0.8200E-02  0.1813E+00  0.1813E+00  0.1712E+00  0.1732E+00  0.1671E+00
     11.438  0.3274E-01  0.1004E-01  0.1004E-01  0.1004E-01  0.4665E+00  0.4665E+00  0.5770E+00  0.5549E+00  0.6212E+00
     11.593  0.3663E-04  0.1097E-03  0.1097E-03  0.1097E-03  0.1377E+00  0.1377E+00  0.1691E+00  0.1628E+00  0.1817E+00
     11.748  0.5128E-13  0.4457E-04  0.4457E-04  0.4457E-04  0.4740E-01  0.4740E-01  0.8083E-01  0.7414E-01  0.9420E-01
     11.903  0.8110E-13  0.8307E-10  0.8306E-10  0.8307E-10  0.4928E-01  0.4928E-01  0.1109E+00  0.9856E-01  0.1355E+00
     12.058  0.1056E-16  0.1616E-17  0.6111E-18  0.5722E-18  0.6302E-05  0.6302E-05  0.1418E-04  0.1260E-04  0.1733E-04
     12.213  0.0000E+00  0.0000E+00  0.0000E+00  0.0000E+00  0.0000E+00  0.0000E+00  0.0000E+00  0.0000E+00  0.0000E+00
     12.368  0.0000E+00  0.0000E+00  0.0000E+00  0.0000E+00  0.0000E+00  0.0000E+00  0.0000E+00  0.0000E+00  0.0000E+00
     12.523  0.0000E+00  0.0000E+00  0.0000E+00  0.0000E+00  0.0000E+00  0.0000E+00  0.0000E+00  0.0000E+00  0.0000E+00
     12.678  0.6569E-06  0.4384E-06  0.4385E-06  0.4385E-06  0.9529E-06  0.9528E-06  0.9571E-06  0.9563E-06  0.9588E-06
     12.833  0.3108E-01  0.2074E-01  0.2074E-01  0.2074E-01  0.4508E-01  0.4508E-01  0.4528E-01  0.4524E-01  0.4536E-01
     12.988  0.2415E-01  0.1612E-01  0.1612E-01  0.1612E-01  0.3503E-01  0.3503E-01  0.3519E-01  0.3516E-01  0.3525E-01
     13.143  0.1434E-01  0.1657E-01  0.1657E-01  0.1657E-01  0.1174E-01  0.1174E-01  0.1282E-01  0.1261E-01  0.1326E-01
     13.298  0.2264E+00  0.1318E+00  0.1318E+00  0.1318E+00  0.2194E+00  0.2194E+00  0.2382E+00  0.2344E+00  0.2457E+00
     13.453  0.9088E-01  0.5372E-01  0.5372E-01  0.5372E-01  0.6840E-01  0.6840E-01  0.8497E-01  0.8166E-01  0.9160E-01
     13.608  0.9765E-02  0.4476E-02  0.4476E-02  0.4476E-02  0.6255E-02  0.6256E-02  0.8221E-02  0.7827E-02  0.9007E-02
     13.763  0.8308E-09  0.3808E-09  0.3808E-09  0.3808E-09  0.5321E-09  0.5323E-09  0.6994E-09  0.6659E-09  0.7662E-09
     13.918  0.5270E-13  0.7823E-13  0.7823E-13  0.7823E-13  0.3259E-13  0.3259E-13  0.5440E-13  0.5004E-13  0.6312E-13
     14.073  0.2201E-03  0.3267E-03  0.3267E-03  0.3267E-03  0.1361E-03  0.1361E-03  0.2272E-03  0.2090E-03  0.2636E-03
     14.228  0.5371E-01  0.7972E-01  0.7973E-01  0.7972E-01  0.3322E-01  0.3322E-01  0.5544E-01  0.5100E-01  0.6433E-01
     14.383  0.6576E-01  0.5277E-01  0.5277E-01  0.5277E-01  0.4271E-01  0.4271E-01  0.5439E-01  0.5205E-01  0.5906E-01
     14.538  0.1556E-01  0.1209E-01  0.1209E-01  0.1208E-01  0.1012E-01  0.1012E-01  0.1275E-01  0.1222E-01  0.1380E-01
     14.693  0.6473E-08  0.5029E-08  0.5029E-08  0.5029E-08  0.4212E-08  0.4212E-08  0.5304E-08  0.5085E-08  0.5741E-08
     14.848  0.0000E+00  0.0000E+00  0.0000E+00  0.0000E+00  0.0000E+00  0.0000E+00  0.0000E+00  0.0000E+00  0.0000E+00
     15.003  0.1989E-07  0.4557E-08  0.4556E-08  0.4558E-08  0.3797E-08  0.3795E-08  0.5270E-08  0.4977E-08  0.5861E-08
     15.158  0.3890E-01  0.8912E-02  0.8912E-02  0.8913E-02  0.7425E-02  0.7424E-02  0.1031E-01  0.9732E-02  0.1146E-01
     15.313  0.1450E+00  0.3321E-01  0.3321E-01  0.3321E-01  0.2767E-01  0.2767E-01  0.3842E-01  0.3627E-01  0.4272E-01
     15.468  0.1806E+00  0.3091E-01  0.3091E-01  0.3091E-01  0.2960E-01  0.2960E-01  0.4179E-01  0.3935E-01  0.4667E-01
     15.623  0.2953E-01  0.5086E-02  0.5086E-02  0.5085E-02  0.4855E-02  0.4856E-02  0.6847E-02  0.6448E-02  0.7644E-02
     15.778  0.4950E-08  0.8506E-01  0.8506E-01  0.8506E-01  0.4137E-01  0.4137E-01  0.3680E-01  0.3772E-01  0.3498E-01
     15.933  0.2886E-12  0.1723E-01  0.1723E-01  0.1723E-01  0.8382E-02  0.8382E-02  0.7456E-02  0.7641E-02  0.7086E-02
     16.088  0.2237E-13  0.3538E-02  0.3538E-02  0.3538E-02  0.5901E-03  0.5901E-03  0.1328E-02  0.1180E-02  0.1623E-02
     16.243  0.3642E-12  0.5762E-01  0.5762E-01  0.5762E-01  0.9609E-02  0.9609E-02  0.2162E-01  0.1922E-01  0.2643E-01
     16.398  0.4970E-14  0.1520E-03  0.1520E-03  0.1521E-03  0.2536E-04  0.2536E-04  0.5706E-04  0.5072E-04  0.6974E-04
     16.553  0.2005E-03  0.6495E-04  0.6494E-04  0.6495E-04  0.3896E-04  0.3896E-04  0.5559E-04  0.5227E-04  0.6225E-04
     16.708  0.2998E+00  0.9712E-01  0.9712E-01  0.9712E-01  0.5826E-01  0.5826E-01  0.8314E-01  0.7816E-01  0.9309E-01
     16.863  0.2607E+00  0.1811E-01  0.1811E-01  0.1811E-01  0.2534E-01  0.2534E-01  0.4682E-01  0.4252E-01  0.5541E-01
     17.018  0.1046E+00  0.2192E-02  0.2191E-02  0.2192E-02  0.7922E-02  0.7923E-02  0.1634E-01  0.1466E-01  0.1971E-01
     17.173  0.1834E+00  0.1679E-01  0.1679E-01  0.1679E-01  0.6868E-02  0.6868E-02  0.1525E-01  0.1357E-01  0.1861E-01
     17.328  0.1802E-01  0.1528E-03  0.1528E-03  0.1528E-03  0.1677E-02  0.1677E-02  0.3771E-02  0.3352E-02  0.4608E-02
     17.483  0.1366E+00  0.8715E-02  0.8714E-02  0.8715E-02  0.1238E-01  0.1238E-01  0.2750E-01  0.2448E-01  0.3356E-01
     17.638  0.1382E+00  0.8823E-02  0.8823E-02  0.8823E-02  0.1253E-01  0.1253E-01  0.2785E-01  0.2478E-01  0.3397E-01
     17.793  0.1660E-05  0.1059E-06  0.1060E-06  0.1059E-06  0.1504E-06  0.1505E-06  0.3343E-06  0.2976E-06  0.4078E-06
     17.948  0.2337E-13  0.2681E-03  0.2681E-03  0.2681E-03  0.5423E-04  0.5423E-04  0.1220E-03  0.1085E-03  0.1491E-03
     18.103  0.4953E-11  0.5681E-01  0.5681E-01  0.5681E-01  0.1149E-01  0.1149E-01  0.2585E-01  0.2298E-01  0.3160E-01
     18.258  0.3086E-04  0.2278E-02  0.2278E-02  0.2278E-02  0.4614E-03  0.4614E-03  0.1033E-02  0.9190E-03  0.1262E-02
     18.413  0.2277E+00  0.1232E+00  0.1232E+00  0.1232E+00  0.3022E-01  0.3022E-01  0.3357E-01  0.3290E-01  0.3491E-01
     18.568  0.2852E+00  0.9794E-01  0.9793E-01  0.9794E-01  0.5036E-01  0.5036E-01  0.5201E-01  0.5168E-01  0.5267E-01
     18.723  0.7976E-01  0.2835E-01  0.2835E-01  0.2835E-01  0.9208E-02  0.9208E-02  0.1398E-01  0.1303E-01  0.1589E-01
     18.878  0.3293E+00  0.8308E-01  0.8308E-01  0.8308E-01  0.3103E-01  0.3103E-01  0.6069E-01  0.5475E-01  0.7255E-01
     19.033  0.2840E-01  0.4214E-02  0.4214E-02  0.4213E-02  0.3052E-02  0.3052E-02  0.4721E-02  0.4388E-02  0.5388E-02
     19.188  0.1851E+00  0.3625E-02  0.3625E-02  0.3625E-02  0.1474E-01  0.1474E-01  0.5528E-02  0.7371E-02  0.1843E-02
     19.343  0.6873E-03  0.1346E-04  0.1346E-04  0.1346E-04  0.5473E-04  0.5473E-04  0.2052E-04  0.2736E-04  0.6841E-05
     19.498  0.3042E-14  0.8055E-04  0.8058E-04  0.8055E-04  0.1036E-04  0.1035E-04  0.2330E-04  0.2071E-04  0.2848E-04
     19.653  0.2258E-11  0.5978E-01  0.5978E-01  0.5978E-01  0.7684E-02  0.7684E-02  0.1729E-01  0.1537E-01  0.2113E-01
     19.808  0.2174E-12  0.5754E-02  0.5753E-02  0.5754E-02  0.7395E-03  0.7397E-03  0.1664E-02  0.1479E-02  0.2034E-02
     19.963  0.8465E-06  0.2392E-06  0.2391E-06  0.2393E-06  0.1040E-06  0.1039E-06  0.2339E-06  0.2079E-06  0.2859E-06
     20.118  0.3937E-01  0.1083E-01  0.1083E-01  0.1083E-01  0.4447E-02  0.4446E-02  0.9528E-02  0.8512E-02  0.1156E-01
     20.273  0.3129E+00  0.6529E-01  0.6529E-01  0.6529E-01  0.2216E-01  0.2216E-01  0.1677E-01  0.1785E-01  0.1461E-01
     20.428  0.4363E-02  0.5609E-03  0.5608E-03  0.5608E-03  0.4440E-03  0.4439E-03  0.1936E-03  0.2437E-03  0.9347E-04
     20.583  0.7592E-01  0.3367E-01  0.3367E-01  0.3367E-01  0.1052E-01  0.1052E-01  0.1444E-01  0.1365E-01  0.1601E-01
     20.738  0.2412E+00  0.1067E+00  0.1067E+00  0.1067E+00  0.3417E-01  0.3417E-01  0.4548E-01  0.4322E-01  0.5001E-01
     20.893  0.1561E+00  0.6253E-01  0.6253E-01  0.6254E-01  0.4543E-01  0.4543E-01  0.1770E-01  0.2324E-01  0.6600E-02
     21.048  0.9654E-03  0.3869E-03  0.3868E-03  0.3869E-03  0.2811E-03  0.2811E-03  0.1095E-03  0.1438E-03  0.4082E-04
     21.203  0.1191E-10  0.3756E-01  0.3756E-01  0.3755E-01  0.7080E-02  0.7080E-02  0.1593E-01  0.1416E-01  0.1947E-01
     21.358  0.1443E-02  0.8592E-01  0.8592E-01  0.8592E-01  0.1721E-01  0.1721E-01  0.3653E-01  0.3266E-01  0.4425E-01
     21.513  0.4635E-01  0.3211E-01  0.3211E-01  0.3211E-01  0.3867E-01  0.3867E-01  0.1639E-01  0.2084E-01  0.7472E-02
     21.668  0.3026E-03  0.2078E-03  0.2078E-03  0.2078E-03  0.2474E-03  0.2474E-03  0.1051E-03  0.1336E-03  0.4820E-04
     21.823  0.1901E+00  0.8484E-01  0.8484E-01  0.8484E-01  0.1749E-01  0.1749E-01  0.2480E-01  0.2334E-01  0.2773E-01
     21.978  0.1274E+00  0.7614E-01  0.7614E-01  0.7614E-01  0.1381E-01  0.1382E-01  0.2245E-01  0.2073E-01  0.2591E-01
     22.133  0.7067E-01  0.7822E-01  0.7822E-01  0.7822E-01  0.1567E-01  0.1567E-01  0.1273E-01  0.1332E-01  0.1156E-01
     22.288  0.7319E-02  0.2936E-02  0.2936E-02  0.2936E-02  0.1369E-02  0.1369E-02  0.7482E-03  0.8723E-03  0.4997E-03
     22.443  0.4995E-04  0.6946E-04  0.6948E-04  0.6947E-04  0.2846E-04  0.2846E-04  0.2245E-04  0.2365E-04  0.2004E-04
     22.598  0.1192E+00  0.1658E+00  0.1658E+00  0.1658E+00  0.6792E-01  0.6792E-01  0.5357E-01  0.5644E-01  0.4783E-01
     22.753  0.2266E-01  0.5347E-01  0.5347E-01  0.5347E-01  0.1291E-01  0.1291E-01  0.1018E-01  0.1073E-01  0.9091E-02
     22.908  0.1577E-07  0.1179E-01  0.1179E-01  0.1179E-01  0.1595E-07  0.1595E-07  0.8730E-08  0.1017E-07  0.5844E-08
     23.063  0.1246E-01  0.2178E-01  0.2178E-01  0.2178E-01  0.1537E-01  0.1537E-01  0.7550E-02  0.9115E-02  0.4422E-02
     23.218  0.3861E-01  0.8172E-01  0.8172E-01  0.8172E-01  0.6002E-01  0.6002E-01  0.2788E-01  0.3431E-01  0.1502E-01