    1    1    1    1
  0.1509714E+02  0.2774192E-09  0.2774192E-09  0.2774192E-09  0.5000000E-15
   1.0000000000000000E-004
  CAR 
 unknown system                          
     10    260     12
 
  0.1262379E-14  0.1262379E-14  0.1262379E-14  0.1953125E-02
    1        1.152576   1.000000
    2        7.516221   1.000000
    3        7.516222   1.000000
    4        7.516223   1.000000
    5        9.662761   1.000000
    6        9.662761   1.000000
    7       25.950185   0.000000
    8       30.930651   0.000000
    9       30.930658   0.000000
   10       30.930662   0.000000
   11       36.270617   0.000000
   12       43.423452   0.000000
 
  0.1250000E+00  0.1248751E-14  0.1262379E-14  0.3906250E-02
    1        1.762428   1.000000
    2        7.276566   1.000000
    3        7.734636   1.000000
    4        7.734638   1.000000
    5        9.563145   1.000000
    6        9.563145   1.000000
    7       26.837971   0.000000
    8       28.472704   0.000000
    9       31.868192   0.000000
   10       31.868197   0.000000
   11       37.583768   0.000000
   12       40.437956   0.000000
 
  0.1262379E-14  0.1250000E+00  0.1262379E-14  0.3906250E-02
    1        1.762429   1.000000
    2        7.276567   1.000000
    3        7.734636   1.000000
    4        7.734638   1.000000
    5        9.563144   1.000000
    6        9.563144   1.000000
    7       26.837972   0.000000
    8       28.472709   0.000000
    9       31.868187   0.000000
   10       31.868194   0.000000
   11       37.583771   0.000000
   12       40.437777   0.000000
 
  0.1269818E-14  0.1249001E-14  0.1250000E+00  0.3906250E-02
    1        1.762429   1.000000
    2        7.276566   1.000000
    3        7.734636   1.000000
    4        7.734639   1.000000
    5        9.563144   1.000000
    6        9.563145   1.000000
    7       26.837972   0.000000
    8       28.472707   0.000000
    9       31.868188   0.000000
   10       31.868197   0.000000
   11       37.583769   0.000000
   12       40.438206   0.000000
 
  0.1250000E+00  0.1250000E+00  0.1250000E+00  0.3906250E-02
    1        1.762429   1.000000
    2        7.276566   1.000000
    3        7.734636   1.000000
    4        7.734638   1.000000
    5        9.563144   1.000000
    6        9.563144   1.000000
    7       26.837972   0.000000
    8       28.472711   0.000000
    9       31.868187   0.000000
   10       31.868194   0.000000
   11       37.583769   0.000000
   12       40.437788   0.000000
 
  0.2500000E+00  0.1241812E-14  0.1262379E-14  0.3906250E-02
    1        3.191235   1.000000
    2        7.179305   1.000000
    3        7.889288   1.000000
    4        7.889290   1.000000
    5        9.838676   1.000000
    6        9.838677   1.000000
    7       24.633503   0.000000
    8       27.682657   0.000000
    9       33.974670   0.000000
   10       33.974673   0.000000
   11       34.845079   0.000000
   12       36.264576   0.000000
 
  0.1262379E-14  0.2500000E+00  0.1262379E-14  0.3906250E-02
    1        3.191237   1.000000
    2        7.179305   1.000000
    3        7.889289   1.000000
    4        7.889292   1.000000
    5        9.838674   1.000000
    6        9.838675   1.000000
    7       24.633509   0.000000
    8       27.682659   0.000000
    9       33.974664   0.000000
   10       33.974669   0.000000
   11       34.845078   0.000000
   12       36.264576   0.000000
 
  0.1290634E-14  0.1193490E-14  0.2500000E+00  0.3906250E-02
    1        3.191236   1.000000
    2        7.179305   1.000000
    3        7.889288   1.000000
    4        7.889293   1.000000
    5        9.838675   1.000000
    6        9.838675   1.000000
    7       24.633506   0.000000
    8       27.682658   0.000000
    9       33.974665   0.000000
   10       33.974672   0.000000
   11       34.845078   0.000000
   12       36.264578   0.000000
 
  0.2500000E+00  0.2500000E+00  0.2500000E+00  0.3906250E-02
    1        3.191237   1.000000
    2        7.179304   1.000000
    3        7.889289   1.000000
    4        7.889293   1.000000
    5        9.838674   1.000000
    6        9.838674   1.000000
    7       24.633512   0.000000
    8       27.682659   0.000000
    9       33.974662   0.000000
   10       33.974667   0.000000
   11       34.845078   0.000000
   12       36.264563   0.000000
 
  0.3750000E+00  0.1283445E-14  0.1262379E-14  0.3906250E-02
    1        3.970408   1.000000
    2        7.612555   1.000000
    3        7.612558   1.000000
    4        8.853021   1.000000
    5       10.791102   1.000000
    6       10.791102   1.000000
    7       20.110940   0.000000
    8       26.219762   0.000000
    9       31.730205   0.000000
   10       31.730216   0.000000
   11       37.728046   0.000000
   12       37.973754   0.000000
 
  0.1262379E-14  0.3750000E+00  0.1262379E-14  0.3906250E-02
    1        3.970410   1.000000
    2        7.612555   1.000000
    3        7.612559   1.000000
    4        8.853022   1.000000
    5       10.791101   1.000000
    6       10.791102   1.000000
    7       20.110946   0.000000
    8       26.219761   0.000000
    9       31.730201   0.000000
   10       31.730209   0.000000
   11       37.728269   0.000000
   12       37.973753   0.000000
 
  0.1304512E-14  0.1221245E-14  0.3750000E+00  0.3906250E-02
    1        3.970409   1.000000
    2        7.612555   1.000000
    3        7.612560   1.000000
    4        8.853021   1.000000
    5       10.791101   1.000000
    6       10.791102   1.000000
    7       20.110943   0.000000
    8       26.219762   0.000000
    9       31.730202   0.000000
   10       31.730212   0.000000
   11       37.728019   0.000000
   12       37.973757   0.000000
 
  0.3750000E+00  0.3750000E+00  0.3750000E+00  0.3906250E-02
    1        3.970411   1.000000
    2        7.612556   1.000000
    3        7.612560   1.000000
    4        8.853018   1.000000
    5       10.791101   1.000000
    6       10.791102   1.000000
    7       20.110951   0.000000
    8       26.219763   0.000000
    9       31.730190   0.000000
   10       31.730194   0.000000
   11       37.728570   0.000000
   12       37.973758   0.000000
 
  0.5000000E+00  0.1241812E-14  0.1262379E-14  0.1953125E-02
    1        4.011536   1.000000
    2        7.455376   1.000000
    3        7.455378   1.000000
    4       10.879515   1.000000
    5       11.322087   0.099100
    6       11.322088   0.099097
    7       17.157515   0.000000
    8       25.526599   0.000000
    9       30.312287   0.000000
   10       30.312299   0.000000
   11       39.704292   0.000000
   12       39.704305   0.000000
 
  0.1262379E-14  0.5000000E+00  0.1262379E-14  0.1953125E-02
    1        4.011537   1.000000
    2        7.455375   1.000000
    3        7.455379   1.000000
    4       10.879518   1.000000
    5       11.322088   0.099099
    6       11.322088   0.099095
    7       17.157520   0.000000
    8       25.526597   0.000000
    9       30.312282   0.000000
   10       30.312291   0.000000
   11       39.704283   0.000000
   12       39.704301   0.000000
 
  0.1276756E-14  0.1276756E-14  0.5000000E+00  0.1953125E-02
    1        4.011537   1.000000
    2        7.455375   1.000000
    3        7.455380   1.000000
    4       10.879516   1.000000
    5       11.322087   0.099101
    6       11.322088   0.099097
    7       17.157517   0.000000
    8       25.526598   0.000000
    9       30.312284   0.000000
   10       30.312294   0.000000
   11       39.704285   0.000000
   12       39.704304   0.000000
 
  0.5000000E+00  0.5000000E+00  0.5000000E+00  0.1953125E-02
    1        4.011538   1.000000
    2        7.455376   1.000000
    3        7.455380   1.000000
    4       10.879509   1.000000
    5       11.322087   0.099100
    6       11.322088   0.099095
    7       17.157530   0.000000
    8       25.526600   0.000000
    9       30.312272   0.000000
   10       30.312275   0.000000
   11       39.704300   0.000000
   12       39.704302   0.000000
 
  0.1250000E+00  0.1250000E+00  0.1262379E-14  0.3906250E-02
    1        1.970312   1.000000
    2        7.004526   1.000000
    3        7.945774   1.000000
    4        7.945774   1.000000
    5        9.100823   1.000000
    6        9.877593   1.000000
    7       27.212324   0.000000
    8       29.472187   0.000000
    9       30.909180   0.000000
   10       30.909184   0.000000
   11       39.082651   0.000000
   12       39.082662   0.000000
 
  0.1269818E-14  0.1250000E+00  0.1250000E+00  0.3906250E-02
    1        1.970312   1.000000
    2        7.004526   1.000000
    3        7.945774   1.000000
    4        7.945775   1.000000
    5        9.100823   1.000000
    6        9.877593   1.000000
    7       27.212324   0.000000
    8       29.472187   0.000000
    9       30.909180   0.000000
   10       30.909184   0.000000
   11       39.082651   0.000000
   12       39.082878   0.000000
 
  0.1250000E+00  0.1235123E-14  0.1250000E+00  0.3906250E-02
    1        1.970312   1.000000
    2        7.004526   1.000000
    3        7.945773   1.000000
    4        7.945775   1.000000
    5        9.100823   1.000000
    6        9.877593   1.000000
    7       27.212324   0.000000
    8       29.472187   0.000000
    9       30.909177   0.000000
   10       30.909187   0.000000
   11       39.082653   0.000000
   12       39.082817   0.000000
 
  0.2500000E+00  0.1250000E+00  0.1262379E-14  0.3906250E-02
    1        3.193506   1.000000
    2        6.601018   1.000000
    3        8.016317   1.000000
    4        8.305252   1.000000
    5        9.227368   1.000000
    6       10.203037   1.000000
    7       26.454149   0.000000
    8       28.485036   0.000000
    9       30.813223   0.000000
   10       31.897729   0.000000
   11       35.677486   0.000000
   12       37.208456   0.000000
 
  0.1269818E-14  0.2500000E+00  0.1250000E+00  0.3906250E-02
    1        3.193507   1.000000
    2        6.601017   1.000000
    3        8.016319   1.000000
    4        8.305254   1.000000
    5        9.227365   1.000000
    6       10.203036   1.000000
    7       26.454155   0.000000
    8       28.485038   0.000000
    9       30.813219   0.000000
   10       31.897729   0.000000
   11       35.677484   0.000000
   12       37.208456   0.000000
 
  0.1250000E+00  0.1179612E-14  0.2500000E+00  0.3906250E-02
    1        3.193507   1.000000
    2        6.601017   1.000000
    3        8.016318   1.000000
    4        8.305256   1.000000
    5        9.227365   1.000000
    6       10.203036   1.000000
    7       26.454152   0.000000
    8       28.485038   0.000000
    9       30.813225   0.000000
   10       31.897726   0.000000
   11       35.677482   0.000000
   12       37.208460   0.000000
 
  0.1250000E+00  0.1250000E+00 -0.1250000E+00  0.3906250E-02
    1        3.193507   1.000000
    2        6.601017   1.000000
    3        8.016318   1.000000
    4        8.305253   1.000000
    5        9.227366   1.000000
    6       10.203037   1.000000
    7       26.454152   0.000000
    8       28.485038   0.000000
    9       30.813220   0.000000
   10       31.897731   0.000000
   11       35.677486   0.000000
   12       37.208460   0.000000
 
  0.2500000E+00  0.1250000E+00  0.2500000E+00  0.3906250E-02
    1        3.193507   1.000000
    2        6.601016   1.000000
    3        8.016320   1.000000
    4        8.305253   1.000000
    5        9.227366   1.000000
    6       10.203036   1.000000
    7       26.454157   0.000000
    8       28.485038   0.000000
    9       30.813215   0.000000
   10       31.897727   0.000000
   11       35.677482   0.000000
   12       37.208447   0.000000
 
  0.1250000E+00  0.2500000E+00  0.1262379E-14  0.3906250E-02
    1        3.193507   1.000000
    2        6.601017   1.000000
    3        8.016319   1.000000
    4        8.305255   1.000000
    5        9.227364   1.000000
    6       10.203035   1.000000
    7       26.454155   0.000000
    8       28.485038   0.000000
    9       30.813222   0.000000
   10       31.897727   0.000000
   11       35.677482   0.000000
   12       37.208458   0.000000
 
  0.1250000E+00 -0.1250000E+00 -0.1250000E+00  0.3906250E-02
    1        3.193506   1.000000
    2        6.601017   1.000000
    3        8.016317   1.000000
    4        8.305253   1.000000
    5        9.227368   1.000000
    6       10.203038   1.000000
    7       26.454149   0.000000
    8       28.485037   0.000000
    9       30.813223   0.000000
   10       31.897730   0.000000
   11       35.677486   0.000000
   12       37.208462   0.000000
 
  0.2500000E+00  0.2500000E+00  0.1250000E+00  0.3906250E-02
    1        3.193507   1.000000
    2        6.601017   1.000000
    3        8.016319   1.000000
    4        8.305254   1.000000
    5        9.227365   1.000000
    6       10.203036   1.000000
    7       26.454157   0.000000
    8       28.485038   0.000000
    9       30.813217   0.000000
   10       31.897726   0.000000
   11       35.677481   0.000000
   12       37.208449   0.000000
 
  0.1290634E-14  0.1250000E+00  0.2500000E+00  0.3906250E-02
    1        3.193507   1.000000
    2        6.601017   1.000000
    3        8.016319   1.000000
    4        8.305253   1.000000
    5        9.227366   1.000000
    6       10.203037   1.000000
    7       26.454153   0.000000
    8       28.485037   0.000000
    9       30.813219   0.000000
   10       31.897729   0.000000
   11       35.677485   0.000000
   12       37.208455   0.000000
 
 -0.1250000E+00  0.1250000E+00 -0.1250000E+00  0.3906250E-02
    1        3.193507   1.000000
    2        6.601016   1.000000
    3        8.016319   1.000000
    4        8.305253   1.000000
    5        9.227366   1.000000
    6       10.203037   1.000000
    7       26.454155   0.000000
    8       28.485039   0.000000
    9       30.813217   0.000000
   10       31.897732   0.000000
   11       35.677485   0.000000
   12       37.208460   0.000000
 
  0.1250000E+00  0.2500000E+00  0.2500000E+00  0.3906250E-02
    1        3.193507   1.000000
    2        6.601016   1.000000
    3        8.016319   1.000000
    4        8.305256   1.000000
    5        9.227364   1.000000
    6       10.203035   1.000000
    7       26.454157   0.000000
    8       28.485039   0.000000
    9       30.813221   0.000000
   10       31.897724   0.000000
   11       35.677479   0.000000
   12       37.208452   0.000000
 
  0.2500000E+00  0.1228184E-14  0.1250000E+00  0.3906250E-02
    1        3.193506   1.000000
    2        6.601017   1.000000
    3        8.016317   1.000000
    4        8.305254   1.000000
    5        9.227367   1.000000
    6       10.203037   1.000000
    7       26.454149   0.000000
    8       28.485036   0.000000
    9       30.813226   0.000000
   10       31.897727   0.000000
   11       35.677484   0.000000
   12       37.208459   0.000000
 
  0.3750000E+00  0.1250000E+00  0.1262379E-14  0.3906250E-02
    1        4.330866   1.000000
    2        7.150551   1.000000
    3        7.448879   1.000000
    4        8.162424   1.000000
    5       10.883076   1.000000
    6       10.986634   1.000000
    7       21.820105   0.000000
    8       27.360409   0.000000
    9       29.893005   0.000000
   10       31.602139   0.000000
   11       37.300617   0.000000
   12       37.485367   0.000000
 
  0.1269818E-14  0.3750000E+00  0.1250000E+00  0.3906250E-02
    1        4.330868   1.000000
    2        7.150551   1.000000
    3        7.448880   1.000000
    4        8.162426   1.000000
    5       10.883075   1.000000
    6       10.986634   1.000000
    7       21.820111   0.000000
    8       27.360408   0.000000
    9       29.893001   0.000000
   10       31.602137   0.000000
   11       37.300616   0.000000
   12       37.485365   0.000000
 
  0.1250000E+00  0.1137979E-14  0.3750000E+00  0.3906250E-02
    1        4.330867   1.000000
    2        7.150551   1.000000
    3        7.448879   1.000000
    4        8.162428   1.000000
    5       10.883075   1.000000
    6       10.986634   1.000000
    7       21.820108   0.000000
    8       27.360407   0.000000
    9       29.893006   0.000000
   10       31.602137   0.000000
   11       37.300620   0.000000
   12       37.485362   0.000000
 
  0.1250000E+00  0.1250000E+00 -0.2500000E+00  0.3906250E-02
    1        4.330868   1.000000
    2        7.150549   1.000000
    3        7.448881   1.000000
    4        8.162425   1.000000
    5       10.883075   1.000000
    6       10.986634   1.000000
    7       21.820109   0.000000
    8       27.360411   0.000000
    9       29.893006   0.000000
   10       31.602131   0.000000
   11       37.300617   0.000000
   12       37.485366   0.000000
 
  0.3750000E+00  0.2500000E+00  0.3750000E+00  0.3906250E-02
    1        4.330869   1.000000
    2        7.150548   1.000000
    3        7.448882   1.000000
    4        8.162426   1.000000
    5       10.883075   1.000000
    6       10.986634   1.000000
    7       21.820115   0.000000
    8       27.360411   0.000000
    9       29.892993   0.000000
   10       31.602125   0.000000
   11       37.300612   0.000000
   12       37.485363   0.000000
 
  0.1250000E+00  0.3750000E+00  0.1262379E-14  0.3906250E-02
    1        4.330867   1.000000
    2        7.150552   1.000000
    3        7.448879   1.000000
    4        8.162428   1.000000
    5       10.883075   1.000000
    6       10.986634   1.000000
    7       21.820111   0.000000
    8       27.360407   0.000000
    9       29.893002   0.000000
   10       31.602138   0.000000
   11       37.300618   0.000000
   12       37.485363   0.000000
 
  0.2500000E+00 -0.1250000E+00 -0.1250000E+00  0.3906250E-02
    1        4.330867   1.000000
    2        7.150550   1.000000
    3        7.448879   1.000000
    4        8.162425   1.000000
    5       10.883076   1.000000
    6       10.986635   1.000000
    7       21.820106   0.000000
    8       27.360411   0.000000
    9       29.893010   0.000000
   10       31.602132   0.000000
   11       37.300618   0.000000
   12       37.485363   0.000000
 
  0.3750000E+00  0.3750000E+00  0.2500000E+00  0.3906250E-02
    1        4.330868   1.000000
    2        7.150548   1.000000
    3        7.448882   1.000000
    4        8.162426   1.000000
    5       10.883075   1.000000
    6       10.986634   1.000000
    7       21.820115   0.000000
    8       27.360410   0.000000
    9       29.892994   0.000000
   10       31.602125   0.000000
   11       37.300614   0.000000
   12       37.485361   0.000000
 
  0.1304512E-14  0.1250000E+00  0.3750000E+00  0.3906250E-02
    1        4.330867   1.000000
    2        7.150550   1.000000
    3        7.448881   1.000000
    4        8.162425   1.000000
    5       10.883076   1.000000
    6       10.986634   1.000000
    7       21.820108   0.000000
    8       27.360409   0.000000
    9       29.893002   0.000000
   10       31.602138   0.000000
   11       37.300616   0.000000
   12       37.485367   0.000000
 
 -0.1250000E+00  0.2500000E+00 -0.1250000E+00  0.3906250E-02
    1        4.330869   1.000000
    2        7.150549   1.000000
    3        7.448881   1.000000
    4        8.162425   1.000000
    5       10.883075   1.000000
    6       10.986634   1.000000
    7       21.820113   0.000000
    8       27.360410   0.000000
    9       29.893003   0.000000
   10       31.602130   0.000000
   11       37.300615   0.000000
   12       37.485364   0.000000
 
  0.2500000E+00  0.3750000E+00  0.3750000E+00  0.3906250E-02
    1        4.330868   1.000000
    2        7.150549   1.000000
    3        7.448880   1.000000
    4        8.162429   1.000000
    5       10.883074   1.000000
    6       10.986633   1.000000
    7       21.820114   0.000000
    8       27.360409   0.000000
    9       29.892997   0.000000
   10       31.602125   0.000000
   11       37.300617   0.000000
   12       37.485358   0.000000
 
  0.3750000E+00  0.1207368E-14  0.1250000E+00  0.3906250E-02
    1        4.330866   1.000000
    2        7.150551   1.000000
    3        7.448878   1.000000
    4        8.162426   1.000000
    5       10.883076   1.000000
    6       10.986635   1.000000
    7       21.820105   0.000000
    8       27.360408   0.000000
    9       29.893008   0.000000
   10       31.602138   0.000000
   11       37.300620   0.000000
   12       37.485367   0.000000
 
  0.5000000E+00  0.1250000E+00  0.1262379E-14  0.3906250E-02
    1        4.479623   1.000000
    2        7.093123   1.000000
    3        7.895048   1.000000
    4        8.765200   1.000000
    5       11.357405   0.011138
    6       13.268032   0.000000
    7       17.483492   0.000000
    8       26.325406   0.000000
    9       29.398575   0.000000
   10       29.448021   0.000000
   11       38.825273   0.000000
   12       39.791816   0.000000
 
  0.1269818E-14  0.5000000E+00  0.1250000E+00  0.3906250E-02
    1        4.479624   1.000000
    2        7.093123   1.000000
    3        7.895049   1.000000
    4        8.765201   1.000000
    5       11.357406   0.011137
    6       13.268033   0.000000
    7       17.483497   0.000000
    8       26.325403   0.000000
    9       29.398570   0.000000
   10       29.448017   0.000000
   11       38.825270   0.000000
   12       39.791812   0.000000
 
  0.1250000E+00  0.1193490E-14  0.5000000E+00  0.3906250E-02
    1        4.479623   1.000000
    2        7.093121   1.000000
    3        7.895052   1.000000
    4        8.765201   1.000000
    5       11.357405   0.011138
    6       13.268032   0.000000
    7       17.483494   0.000000
    8       26.325403   0.000000
    9       29.398571   0.000000
   10       29.448021   0.000000
   11       38.825274   0.000000
   12       39.791815   0.000000
 
  0.1250000E+00  0.1250000E+00 -0.3750000E+00  0.3906250E-02
    1        4.479624   1.000000
    2        7.093123   1.000000
    3        7.895048   1.000000
    4        8.765200   1.000000
    5       11.357405   0.011138
    6       13.268032   0.000000
    7       17.483496   0.000000
    8       26.325406   0.000000
    9       29.398563   0.000000
   10       29.448024   0.000000
   11       38.825263   0.000000
   12       39.791828   0.000000
 
  0.5000000E+00  0.3750000E+00  0.5000000E+00  0.3906250E-02
    1        4.479625   1.000000
    2        7.093125   1.000000
    3        7.895049   1.000000
    4        8.765197   1.000000
    5       11.357405   0.011138
    6       13.268030   0.000000
    7       17.483506   0.000000
    8       26.325407   0.000000
    9       29.398557   0.000000
   10       29.448007   0.000000
   11       38.825273   0.000000
   12       39.791824   0.000000
 
  0.1250000E+00  0.5000000E+00  0.1262379E-14  0.3906250E-02
    1        4.479623   1.000000
    2        7.093121   1.000000
    3        7.895051   1.000000
    4        8.765202   1.000000
    5       11.357406   0.011137
    6       13.268033   0.000000
    7       17.483497   0.000000
    8       26.325402   0.000000
    9       29.398570   0.000000
   10       29.448017   0.000000
   11       38.825271   0.000000
   12       39.791813   0.000000
 
  0.3750000E+00 -0.1250000E+00 -0.1250000E+00  0.3906250E-02
    1        4.479623   1.000000
    2        7.093122   1.000000
    3        7.895049   1.000000
    4        8.765200   1.000000
    5       11.357405   0.011138
    6       13.268032   0.000000
    7       17.483493   0.000000
    8       26.325407   0.000000
    9       29.398565   0.000000
   10       29.448029   0.000000
   11       38.825266   0.000000
   12       39.791830   0.000000
 
  0.5000000E+00  0.5000000E+00  0.3750000E+00  0.3906250E-02
    1        4.479625   1.000000
    2        7.093124   1.000000
    3        7.895050   1.000000
    4        8.765197   1.000000
    5       11.357406   0.011137
    6       13.268029   0.000000
    7       17.483505   0.000000
    8       26.325406   0.000000
    9       29.398556   0.000000
   10       29.448008   0.000000
   11       38.825274   0.000000
   12       39.791825   0.000000
 
  0.1276756E-14  0.1250000E+00  0.5000000E+00  0.3906250E-02
    1        4.479624   1.000000
    2        7.093123   1.000000
    3        7.895049   1.000000
    4        8.765200   1.000000
    5       11.357405   0.011138
    6       13.268032   0.000000
    7       17.483495   0.000000
    8       26.325405   0.000000
    9       29.398572   0.000000
   10       29.448018   0.000000
   11       38.825271   0.000000
   12       39.791814   0.000000
 
 -0.1250000E+00  0.3750000E+00 -0.1250000E+00  0.3906250E-02
    1        4.479624   1.000000
    2        7.093123   1.000000
    3        7.895048   1.000000
    4        8.765201   1.000000
    5       11.357405   0.011138
    6       13.268033   0.000000
    7       17.483498   0.000000
    8       26.325405   0.000000
    9       29.398561   0.000000
   10       29.448022   0.000000
   11       38.825262   0.000000
   12       39.791826   0.000000
 
  0.3750000E+00  0.5000000E+00  0.5000000E+00  0.3906250E-02
    1        4.479624   1.000000
    2        7.093122   1.000000
    3        7.895052   1.000000
    4        8.765198   1.000000
    5       11.357405   0.011138
    6       13.268029   0.000000
    7       17.483505   0.000000
    8       26.325404   0.000000
    9       29.398556   0.000000
   10       29.448010   0.000000
   11       38.825275   0.000000
   12       39.791825   0.000000
 
  0.5000000E+00  0.1124101E-14  0.1250000E+00  0.3906250E-02
    1        4.479623   1.000000
    2        7.093121   1.000000
    3        7.895050   1.000000
    4        8.765200   1.000000
    5       11.357405   0.011138
    6       13.268032   0.000000
    7       17.483492   0.000000
    8       26.325405   0.000000
    9       29.398574   0.000000
   10       29.448024   0.000000
   11       38.825274   0.000000
   12       39.791816   0.000000
 
 -0.3750000E+00  0.1250000E+00  0.1262379E-14  0.3906250E-02
    1        4.513338   1.000000
    2        7.209743   1.000000
    3        7.886119   1.000000
    4        8.528813   1.000000
    5       10.644715   1.000000
    6       12.827846   0.000000
    7       18.831533   0.000000
    8       26.457048   0.000000
    9       28.542287   0.000000
   10       31.378879   0.000000
   11       36.976151   0.000000
   12       39.490995   0.000000
 
  0.1269818E-14 -0.3750000E+00  0.1250000E+00  0.3906250E-02
    1        4.513339   1.000000
    2        7.209743   1.000000
    3        7.886120   1.000000
    4        8.528814   1.000000
    5       10.644715   1.000000
    6       12.827847   0.000000
    7       18.831538   0.000000
    8       26.457045   0.000000
    9       28.542281   0.000000
   10       31.378876   0.000000
   11       36.976152   0.000000
   12       39.490990   0.000000
 
  0.1250000E+00  0.1304512E-14 -0.3750000E+00  0.3906250E-02
    1        4.513338   1.000000
    2        7.209741   1.000000
    3        7.886123   1.000000
    4        8.528814   1.000000
    5       10.644715   1.000000
    6       12.827844   0.000000
    7       18.831536   0.000000
    8       26.457044   0.000000
    9       28.542283   0.000000
   10       31.378879   0.000000
   11       36.976153   0.000000
   12       39.490992   0.000000
 
  0.1250000E+00  0.1250000E+00  0.5000000E+00  0.3906250E-02
    1        4.513339   1.000000
    2        7.209744   1.000000
    3        7.886119   1.000000
    4        8.528813   1.000000
    5       10.644715   1.000000
    6       12.827848   0.000000
    7       18.831533   0.000000
    8       26.457048   0.000000
    9       28.542275   0.000000
   10       31.378882   0.000000
   11       36.976159   0.000000
   12       39.490980   0.000000
 
 -0.3750000E+00  0.5000000E+00 -0.3750000E+00  0.3906250E-02
    1        4.513340   1.000000
    2        7.209746   1.000000
    3        7.886119   1.000000
    4        8.528810   1.000000
    5       10.644714   1.000000
    6       12.827848   0.000000
    7       18.831542   0.000000
    8       26.457048   0.000000
    9       28.542270   0.000000
   10       31.378864   0.000000
   11       36.976153   0.000000
   12       39.490996   0.000000
 
  0.1250000E+00 -0.3750000E+00  0.1262379E-14  0.3906250E-02
    1        4.513339   1.000000
    2        7.209742   1.000000
    3        7.886121   1.000000
    4        8.528814   1.000000
    5       10.644715   1.000000
    6       12.827845   0.000000
    7       18.831539   0.000000
    8       26.457044   0.000000
    9       28.542281   0.000000
   10       31.378876   0.000000
   11       36.976153   0.000000
   12       39.490990   0.000000
 
  0.5000000E+00 -0.1250000E+00 -0.1250000E+00  0.3906250E-02
    1        4.513338   1.000000
    2        7.209743   1.000000
    3        7.886119   1.000000
    4        8.528813   1.000000
    5       10.644716   1.000000
    6       12.827848   0.000000
    7       18.831530   0.000000
    8       26.457048   0.000000
    9       28.542279   0.000000
   10       31.378886   0.000000
   11       36.976158   0.000000
   12       39.490983   0.000000
 
 -0.3750000E+00 -0.3750000E+00  0.5000000E+00  0.3906250E-02
    1        4.513340   1.000000
    2        7.209745   1.000000
    3        7.886120   1.000000
    4        8.528810   1.000000
    5       10.644715   1.000000
    6       12.827846   0.000000
    7       18.831543   0.000000
    8       26.457048   0.000000
    9       28.542269   0.000000
   10       31.378865   0.000000
   11       36.976154   0.000000
   12       39.490996   0.000000
 
  0.1221245E-14  0.1250000E+00 -0.3750000E+00  0.3906250E-02
    1        4.513339   1.000000
    2        7.209744   1.000000
    3        7.886119   1.000000
    4        8.528813   1.000000
    5       10.644715   1.000000
    6       12.827847   0.000000
    7       18.831535   0.000000
    8       26.457047   0.000000
    9       28.542284   0.000000
   10       31.378876   0.000000
   11       36.976151   0.000000