PROCAR lm decomposed
# of k-points:  260         # of bands:   12         # of ions:    1

 k-point     1 :    0.00000000 0.00000000 0.00000000     weight = 0.00195313

band     1 # energy    1.15257583 # occ.  2.00000000
 
ion      s     py     pz     px    dxy    dyz    dz2    dxz  x2-y2    tot
    1  0.814  0.000  0.000  0.000  0.000  0.000  0.000  0.000  0.000  0.814
 
band     2 # energy    7.51622068 # occ.  2.00000000
 
ion      s     py     pz     px    dxy    dyz    dz2    dxz  x2-y2    tot
    1  0.000  0.000  0.000  0.000  0.280  0.013  0.244  0.025  0.413  0.975
 
band     3 # energy    7.51622181 # occ.  2.00000000
 
ion      s     py     pz     px    dxy    dyz    dz2    dxz  x2-y2    tot
    1  0.000  0.000  0.000  0.000  0.003  0.290  0.008  0.580  0.095  0.975
 
band     4 # energy    7.51622341 # occ.  2.00000000
 
ion      s     py     pz     px    dxy    dyz    dz2    dxz  x2-y2    tot
    1  0.000  0.000  0.000  0.000  0.042  0.022  0.480  0.045  0.386  0.975
 
band     5 # energy    9.66276074 # occ.  2.00000000
 
ion      s     py     pz     px    dxy    dyz    dz2    dxz  x2-y2    tot
    1  0.000  0.000  0.000  0.000  0.001  0.654  0.000  0.327  0.000  0.983
 
band     6 # energy    9.66276129 # occ.  2.00000000
 
ion      s     py     pz     px    dxy    dyz    dz2    dxz  x2-y2    tot
    1  0.000  0.000  0.000  0.000  0.654  0.001  0.245  0.000  0.082  0.983
 
band     7 # energy   25.95018534 # occ.  0.00000000
 
ion      s     py     pz     px    dxy    dyz    dz2    dxz  x2-y2    tot
    1  0.000  0.000  0.000  0.000  0.000  0.000  0.000  0.000  0.000  0.000
 
band     8 # energy   30.93065103 # occ.  0.00000000
 
ion      s     py     pz     px    dxy    dyz    dz2    dxz  x2-y2    tot
    1  0.000  0.013  0.003  0.133  0.000  0.000  0.000  0.000  0.000  0.149
 
band     9 # energy   30.93065776 # occ.  0.00000000
 
ion      s     py     pz     px    dxy    dyz    dz2    dxz  x2-y2    tot
    1  0.000  0.033  0.115  0.000  0.000  0.000  0.000  0.000  0.000  0.149
 
band    10 # energy   30.93066199 # occ.  0.00000000
 
ion      s     py     pz     px    dxy    dyz    dz2    dxz  x2-y2    tot
    1  0.000  0.103  0.030  0.016  0.000  0.000  0.000  0.000  0.000  0.149
 
band    11 # energy   36.27061702 # occ.  0.00000000
 
ion      s     py     pz     px    dxy    dyz    dz2    dxz  x2-y2    tot
    1  0.066  0.000  0.000  0.000  0.000  0.000  0.000  0.000  0.000  0.066
 
band    12 # energy   43.42345220 # occ.  0.00000000
 
ion      s     py     pz     px    dxy    dyz    dz2    dxz  x2-y2    tot
    1  0.000  0.000  0.000  0.000  0.060  0.396  0.203  0.791  0.070  1.520
 

 k-point     2 :    0.12500000 0.00000000 0.00000000     weight = 0.00390625

band     1 # energy    1.76242823 # occ.  2.00000000
 
ion      s     py     pz     px    dxy    dyz    dz2    dxz  x2-y2    tot
    1  0.774  0.004  0.000  0.032  0.002  0.000  0.001  0.000  0.002  0.815
 
band     2 # energy    7.27656589 # occ.  2.00000000
 
ion      s     py     pz     px    dxy    dyz    dz2    dxz  x2-y2    tot
    1  0.002  0.001  0.000  0.012  0.281  0.000  0.237  0.000  0.430  0.962
 
band     3 # energy    7.73463615 # occ.  2.00000000
 
ion      s     py     pz     px    dxy    dyz    dz2    dxz  x2-y2    tot
    1  0.000  0.000  0.002  0.000  0.000  0.439  0.024  0.490  0.016  0.972
 
band     4 # energy    7.73463800 # occ.  2.00000000
 
ion      s     py     pz     px    dxy    dyz    dz2    dxz  x2-y2    tot
    1  0.000  0.002  0.000  0.000  0.005  0.019  0.552  0.022  0.372  0.972
 
band     5 # energy    9.56314485 # occ.  2.00000000
 
ion      s     py     pz     px    dxy    dyz    dz2    dxz  x2-y2    tot
    1  0.000  0.000  0.000  0.000  0.011  0.507  0.003  0.452  0.002  0.975
 
band     6 # energy    9.56314543 # occ.  2.00000000
 
ion      s     py     pz     px    dxy    dyz    dz2    dxz  x2-y2    tot
    1  0.000  0.000  0.000  0.000  0.669  0.008  0.150  0.008  0.140  0.975
 
band     7 # energy   26.83797089 # occ.  0.00000000
 
ion      s     py     pz     px    dxy    dyz    dz2    dxz  x2-y2    tot
    1  0.000  0.000  0.000  0.003  0.022  0.000  0.019  0.000  0.034  0.078
 
band     8 # energy   28.47270351 # occ.  0.00000000
 
ion      s     py     pz     px    dxy    dyz    dz2    dxz  x2-y2    tot
    1  0.033  0.017  0.000  0.134  0.014  0.000  0.012  0.000  0.022  0.232
 
band     9 # energy   31.86819225 # occ.  0.00000000
 
ion      s     py     pz     px    dxy    dyz    dz2    dxz  x2-y2    tot
    1  0.000  0.034  0.121  0.004  0.005  0.049  0.010  0.000  0.000  0.223
 
band    10 # energy   31.86819659 # occ.  0.00000000
 
ion      s     py     pz     px    dxy    dyz    dz2    dxz  x2-y2    tot
    1  0.000  0.108  0.038  0.013  0.015  0.015  0.033  0.000  0.001  0.223
 
band    11 # energy   37.58376842 # occ.  0.00000000
 
ion      s     py     pz     px    dxy    dyz    dz2    dxz  x2-y2    tot
    1  0.002  0.033  0.000  0.261  0.084  0.000  0.071  0.000  0.129  0.579
 
band    12 # energy   40.43795596 # occ.  0.00000000
 
ion      s     py     pz     px    dxy    dyz    dz2    dxz  x2-y2    tot
    1  0.127  0.000  0.001  0.045  0.024  0.000  0.015  0.002  0.096  0.310
 

 k-point     3 :    0.00000000 0.12500000 0.00000000     weight = 0.00390625

band     1 # energy    1.76242876 # occ.  2.00000000
 
ion      s     py     pz     px    dxy    dyz    dz2    dxz  x2-y2    tot
    1  0.774  0.036  0.000  0.000  0.000  0.000  0.001  0.000  0.004  0.815
 
band     2 # energy    7.27656737 # occ.  2.00000000
 
ion      s     py     pz     px    dxy    dyz    dz2    dxz  x2-y2    tot
    1  0.002  0.013  0.000  0.000  0.000  0.000  0.237  0.000  0.710  0.962
 
band     3 # energy    7.73463626 # occ.  2.00000000
 
ion      s     py     pz     px    dxy    dyz    dz2    dxz  x2-y2    tot
    1  0.000  0.000  0.000  0.002  0.191  0.010  0.547  0.039  0.182  0.972
 
band     4 # energy    7.73463774 # occ.  2.00000000
 
ion      s     py     pz     px    dxy    dyz    dz2    dxz  x2-y2    tot
    1  0.000  0.000  0.002  0.000  0.010  0.191  0.029  0.729  0.010  0.972
 
band     5 # energy    9.56314365 # occ.  2.00000000
 
ion      s     py     pz     px    dxy    dyz    dz2    dxz  x2-y2    tot
    1  0.000  0.000  0.000  0.000  0.014  0.758  0.003  0.200  0.001  0.975
 
band     6 # energy    9.56314449 # occ.  2.00000000
 
ion      s     py     pz     px    dxy    dyz    dz2    dxz  x2-y2    tot
    1  0.000  0.000  0.000  0.000  0.758  0.014  0.150  0.004  0.050  0.975
 
band     7 # energy   26.83797249 # occ.  0.00000000
 
ion      s     py     pz     px    dxy    dyz    dz2    dxz  x2-y2    tot
    1  0.000  0.003  0.000  0.000  0.000  0.000  0.019  0.000  0.056  0.078
 
band     8 # energy   28.47270940 # occ.  0.00000000
 
ion      s     py     pz     px    dxy    dyz    dz2    dxz  x2-y2    tot
    1  0.033  0.151  0.000  0.000  0.000  0.000  0.012  0.000  0.036  0.232
 
band     9 # energy   31.86818697 # occ.  0.00000000
 
ion      s     py     pz     px    dxy    dyz    dz2    dxz  x2-y2    tot
    1  0.000  0.000  0.010  0.149  0.006  0.000  0.040  0.004  0.013  0.223
 
band    10 # energy   31.86819384 # occ.  0.00000000
 
ion      s     py     pz     px    dxy    dyz    dz2    dxz  x2-y2    tot
    1  0.000  0.000  0.149  0.010  0.000  0.006  0.003  0.053  0.001  0.223
 
band    11 # energy   37.58377077 # occ.  0.00000000
 
ion      s     py     pz     px    dxy    dyz    dz2    dxz  x2-y2    tot
    1  0.002  0.294  0.000  0.000  0.000  0.000  0.071  0.000  0.213  0.579
 
band    12 # energy   40.43777733 # occ.  0.00000000
 
ion      s     py     pz     px    dxy    dyz    dz2    dxz  x2-y2    tot
    1  0.129  0.042  0.001  0.001  0.001  0.001  0.027  0.001  0.101  0.303
 

 k-point     4 :    0.00000000 0.00000000 0.12500000     weight = 0.00390625

band     1 # energy    1.76242856 # occ.  2.00000000
 
ion      s     py     pz     px    dxy    dyz    dz2    dxz  x2-y2    tot
    1  0.774  0.004  0.024  0.008  0.000  0.001  0.001  0.002  0.000  0.815
 
band     2 # energy    7.27656634 # occ.  2.00000000
 
ion      s     py     pz     px    dxy    dyz    dz2    dxz  x2-y2    tot
    1  0.002  0.001  0.009  0.003  0.070  0.210  0.237  0.421  0.009  0.962
 
band     3 # energy    7.73463584 # occ.  2.00000000
 
ion      s     py     pz     px    dxy    dyz    dz2    dxz  x2-y2    tot
    1  0.000  0.000  0.000  0.001  0.287  0.073  0.109  0.031  0.470  0.972
 
band     4 # energy    7.73463879 # occ.  2.00000000
 
ion      s     py     pz     px    dxy    dyz    dz2    dxz  x2-y2    tot
    1  0.000  0.001  0.000  0.000  0.058  0.046  0.275  0.186  0.405  0.972
 
band     5 # energy    9.56314433 # occ.  2.00000000
 
ion      s     py     pz     px    dxy    dyz    dz2    dxz  x2-y2    tot
    1  0.000  0.000  0.000  0.000  0.173  0.508  0.088  0.207  0.000  0.975
 
band     6 # energy    9.56314454 # occ.  2.00000000
 
ion      s     py     pz     px    dxy    dyz    dz2    dxz  x2-y2    tot
    1  0.000  0.000  0.000  0.000  0.384  0.132  0.257  0.116  0.086  0.975
 
band     7 # energy   26.83797183 # occ.  0.00000000
 
ion      s     py     pz     px    dxy    dyz    dz2    dxz  x2-y2    tot
    1  0.000  0.000  0.002  0.001  0.005  0.016  0.019  0.033  0.001  0.078
 
band     8 # energy   28.47270694 # occ.  0.00000000
 
ion      s     py     pz     px    dxy    dyz    dz2    dxz  x2-y2    tot
    1  0.033  0.017  0.100  0.033  0.004  0.011  0.012  0.022  0.000  0.232
 
band     9 # energy   31.86818759 # occ.  0.00000000
 
ion      s     py     pz     px    dxy    dyz    dz2    dxz  x2-y2    tot
    1  0.000  0.043  0.011  0.106  0.021  0.030  0.000  0.006  0.008  0.223
 
band    10 # energy   31.86819667 # occ.  0.00000000
 
ion      s     py     pz     px    dxy    dyz    dz2    dxz  x2-y2    tot
    1  0.000  0.099  0.042  0.018  0.032  0.001  0.000  0.013  0.018  0.223
 
band    11 # energy   37.58376895 # occ.  0.00000000
 
ion      s     py     pz     px    dxy    dyz    dz2    dxz  x2-y2    tot
    1  0.002  0.033  0.196  0.065  0.021  0.063  0.071  0.126  0.003  0.579
 
band    12 # energy   40.43820580 # occ.  0.00000000
 
ion      s     py     pz     px    dxy    dyz    dz2    dxz  x2-y2    tot
    1  0.126  0.009  0.034  0.005  0.018  0.029  0.053  0.042  0.003  0.320
 

 k-point     5 :    0.12500000 0.12500000 0.12500000     weight = 0.00390625

band     1 # energy    1.76242866 # occ.  2.00000000
 
ion      s     py     pz     px    dxy    dyz    dz2    dxz  x2-y2    tot
    1  0.774  0.004  0.024  0.008  0.000  0.001  0.001  0.002  0.000  0.815
 
band     2 # energy    7.27656615 # occ.  2.00000000
 
ion      s     py     pz     px    dxy    dyz    dz2    dxz  x2-y2    tot
    1  0.002  0.001  0.009  0.003  0.070  0.210  0.237  0.421  0.009  0.962
 
band     3 # energy    7.73463553 # occ.  2.00000000
 
ion      s     py     pz     px    dxy    dyz    dz2    dxz  x2-y2    tot
    1  0.000  0.000  0.000  0.002  0.317  0.088  0.158  0.054  0.353  0.972
 
band     4 # energy    7.73463814 # occ.  2.00000000
 
ion      s     py     pz     px    dxy    dyz    dz2    dxz  x2-y2    tot
    1  0.000  0.002  0.000  0.000  0.028  0.031  0.226  0.164  0.521  0.972
 
band     5 # energy    9.56314371 # occ.  2.00000000
 
ion      s     py     pz     px    dxy    dyz    dz2    dxz  x2-y2    tot
    1  0.000  0.000  0.000  0.000  0.084  0.590  0.038  0.261  0.001  0.975
 
band     6 # energy    9.56314411 # occ.  2.00000000
 
ion      s     py     pz     px    dxy    dyz    dz2    dxz  x2-y2    tot
    1  0.000  0.000  0.000  0.000  0.473  0.049  0.307  0.062  0.085  0.975
 
band     7 # energy   26.83797204 # occ.  0.00000000
 
ion      s     py     pz     px    dxy    dyz    dz2    dxz  x2-y2    tot
    1  0.000  0.000  0.002  0.001  0.005  0.016  0.019  0.033  0.001  0.078
 
band     8 # energy   28.47271107 # occ.  0.00000000
 
ion      s     py     pz     px    dxy    dyz    dz2    dxz  x2-y2    tot
    1  0.033  0.017  0.100  0.034  0.004  0.011  0.012  0.022  0.000  0.232
 
band     9 # energy   31.86818684 # occ.  0.00000000
 
ion      s     py     pz     px    dxy    dyz    dz2    dxz  x2-y2    tot
    1  0.000  0.017  0.022  0.120  0.033  0.026  0.000  0.002  0.003  0.223
 
band    10 # energy   31.86819394 # occ.  0.00000000
 
ion      s     py     pz     px    dxy    dyz    dz2    dxz  x2-y2    tot
    1  0.000  0.124  0.031  0.003  0.020  0.005  0.000  0.017  0.022  0.223
 
band    11 # energy   37.58376897 # occ.  0.00000000
 
ion      s     py     pz     px    dxy    dyz    dz2    dxz  x2-y2    tot
    1  0.002  0.033  0.196  0.065  0.021  0.063  0.071  0.126  0.003  0.579
 
band    12 # energy   40.43778839 # occ.  0.00000000
 
ion      s     py     pz     px    dxy    dyz    dz2    dxz  x2-y2    tot
    1  0.128  0.003  0.026  0.015  0.007  0.028  0.027  0.065  0.005  0.303
 

 k-point     6 :    0.25000000 0.00000000 0.00000000     weight = 0.00390625

band     1 # energy    3.19123474 # occ.  2.00000000
 
ion      s     py     pz     px    dxy    dyz    dz2    dxz  x2-y2    tot
    1  0.618  0.010  0.000  0.076  0.039  0.000  0.033  0.000  0.060  0.836
 
band     2 # energy    7.17930527 # occ.  2.00000000
 
ion      s     py     pz     px    dxy    dyz    dz2    dxz  x2-y2    tot
    1  0.045  0.012  0.000  0.096  0.227  0.000  0.191  0.000  0.347  0.919
 
band     3 # energy    7.88928826 # occ.  2.00000000
 
ion      s     py     pz     px    dxy    dyz    dz2    dxz  x2-y2    tot
    1  0.000  0.000  0.002  0.000  0.010  0.731  0.089  0.114  0.020  0.966
 
band     4 # energy    7.88929045 # occ.  2.00000000
 
ion      s     py     pz     px    dxy    dyz    dz2    dxz  x2-y2    tot
    1  0.000  0.002  0.000  0.000  0.069  0.102  0.633  0.016  0.143  0.966
 
band     5 # energy    9.83867619 # occ.  2.00000000
 
ion      s     py     pz     px    dxy    dyz    dz2    dxz  x2-y2    tot
    1  0.000  0.000  0.003  0.000  0.031  0.124  0.000  0.789  0.019  0.966
 
band     6 # energy    9.83867680 # occ.  2.00000000
 
ion      s     py     pz     px    dxy    dyz    dz2    dxz  x2-y2    tot
    1  0.000  0.003  0.000  0.000  0.569  0.007  0.001  0.043  0.343  0.966
 
band     7 # energy   24.63350275 # occ.  0.00000000
 
ion      s     py     pz     px    dxy    dyz    dz2    dxz  x2-y2    tot
    1  0.113  0.028  0.000  0.226  0.058  0.000  0.049  0.000  0.089  0.563
 
band     8 # energy   27.68265673 # occ.  0.00000000
 
ion      s     py     pz     px    dxy    dyz    dz2    dxz  x2-y2    tot
    1  0.004  0.005  0.000  0.043  0.054  0.000  0.046  0.000  0.083  0.235
 
band     9 # energy   33.97466961 # occ.  0.00000000
 
ion      s     py     pz     px    dxy    dyz    dz2    dxz  x2-y2    tot
    1  0.000  0.064  0.261  0.008  0.004  0.177  0.043  0.029  0.010  0.598
 
band    10 # energy   33.97467295 # occ.  0.00000000
 
ion      s     py     pz     px    dxy    dyz    dz2    dxz  x2-y2    tot
    1  0.000  0.232  0.073  0.029  0.016  0.049  0.155  0.008  0.036  0.598
 
band    11 # energy   34.84507860 # occ.  0.00000000
 
ion      s     py     pz     px    dxy    dyz    dz2    dxz  x2-y2    tot
    1  0.046  0.026  0.000  0.211  0.001  0.000  0.001  0.000  0.002  0.289
 
band    12 # energy   36.26457579 # occ.  0.00000000
 
ion      s     py     pz     px    dxy    dyz    dz2    dxz  x2-y2    tot
    1  0.000  0.062  0.060  0.008  0.100  0.015  0.000  0.129  0.068  0.441
 

 k-point     7 :    0.00000000 0.25000000 0.00000000     weight = 0.00390625

band     1 # energy    3.19123662 # occ.  2.00000000
 
ion      s     py     pz     px    dxy    dyz    dz2    dxz  x2-y2    tot
    1  0.618  0.086  0.000  0.000  0.000  0.000  0.033  0.000  0.099  0.836
 
band     2 # energy    7.17930527 # occ.  2.00000000
 
ion      s     py     pz     px    dxy    dyz    dz2    dxz  x2-y2    tot
    1  0.045  0.108  0.000  0.000  0.000  0.000  0.191  0.000  0.574  0.919
 
band     3 # energy    7.88928927 # occ.  2.00000000
 
ion      s     py     pz     px    dxy    dyz    dz2    dxz  x2-y2    tot
    1  0.000  0.000  0.000  0.002  0.001  0.000  0.687  0.047  0.229  0.966
 
band     4 # energy    7.88929239 # occ.  2.00000000
 
ion      s     py     pz     px    dxy    dyz    dz2    dxz  x2-y2    tot
    1  0.000  0.000  0.002  0.000  0.000  0.001  0.035  0.915  0.012  0.966
 
band     5 # energy    9.83867364 # occ.  2.00000000
 
ion      s     py     pz     px    dxy    dyz    dz2    dxz  x2-y2    tot
    1  0.000  0.000  0.003  0.000  0.023  0.939  0.000  0.001  0.000  0.966
 
band     6 # energy    9.83867475 # occ.  2.00000000
 
ion      s     py     pz     px    dxy    dyz    dz2    dxz  x2-y2    tot
    1  0.000  0.000  0.000  0.003  0.939  0.023  0.001  0.000  0.000  0.966
 
band     7 # energy   24.63350919 # occ.  0.00000000
 
ion      s     py     pz     px    dxy    dyz    dz2    dxz  x2-y2    tot
    1  0.113  0.255  0.000  0.000  0.000  0.000  0.049  0.000  0.146  0.563
 
band     8 # energy   27.68265931 # occ.  0.00000000
 
ion      s     py     pz     px    dxy    dyz    dz2    dxz  x2-y2    tot
    1  0.004  0.048  0.000  0.000  0.000  0.000  0.046  0.000  0.137  0.235
 
band     9 # energy   33.97466390 # occ.  0.00000000
 
ion      s     py     pz     px    dxy    dyz    dz2    dxz  x2-y2    tot
    1  0.000  0.000  0.020  0.314  0.001  0.000  0.186  0.016  0.062  0.598
 
band    10 # energy   33.97466877 # occ.  0.00000000
 
ion      s     py     pz     px    dxy    dyz    dz2    dxz  x2-y2    tot
    1  0.000  0.000  0.314  0.020  0.000  0.001  0.012  0.248  0.004  0.598
 
band    11 # energy   34.84507822 # occ.  0.00000000
 
ion      s     py     pz     px    dxy    dyz    dz2    dxz  x2-y2    tot
    1  0.046  0.238  0.000  0.000  0.000  0.000  0.001  0.000  0.004  0.289
 
band    12 # energy   36.26457633 # occ.  0.00000000
 
ion      s     py     pz     px    dxy    dyz    dz2    dxz  x2-y2    tot
    1  0.000  0.000  0.018  0.112  0.269  0.043  0.000  0.000  0.000  0.441
 

 k-point     8 :    0.00000000 0.00000000 0.25000000     weight = 0.00390625

band     1 # energy    3.19123595 # occ.  2.00000000
 
ion      s     py     pz     px    dxy    dyz    dz2    dxz  x2-y2    tot
    1  0.618  0.010  0.057  0.019  0.010  0.029  0.033  0.059  0.001  0.836
 
band     2 # energy    7.17930479 # occ.  2.00000000
 
ion      s     py     pz     px    dxy    dyz    dz2    dxz  x2-y2    tot
    1  0.045  0.012  0.072  0.024  0.057  0.170  0.191  0.340  0.007  0.919
 
band     3 # energy    7.88928831 # occ.  2.00000000
 
ion      s     py     pz     px    dxy    dyz    dz2    dxz  x2-y2    tot
    1  0.000  0.001  0.000  0.002  0.359  0.266  0.022  0.008  0.309  0.966
 
band     4 # energy    7.88929300 # occ.  2.00000000
 
ion      s     py     pz     px    dxy    dyz    dz2    dxz  x2-y2    tot
    1  0.000  0.002  0.001  0.000  0.285  0.001  0.076  0.238  0.363  0.966
 
band     5 # energy    9.83867450 # occ.  2.00000000
 
ion      s     py     pz     px    dxy    dyz    dz2    dxz  x2-y2    tot
    1  0.000  0.001  0.001  0.001  0.245  0.116  0.585  0.016  0.001  0.966
 
band     6 # energy    9.83867532 # occ.  2.00000000
 
ion      s     py     pz     px    dxy    dyz    dz2    dxz  x2-y2    tot
    1  0.000  0.001  0.000  0.002  0.003  0.367  0.039  0.273  0.281  0.966
 
band     7 # energy   24.63350632 # occ.  0.00000000
 
ion      s     py     pz     px    dxy    dyz    dz2    dxz  x2-y2    tot
    1  0.113  0.028  0.170  0.057  0.014  0.043  0.049  0.087  0.002  0.563
 
band     8 # energy   27.68265829 # occ.  0.00000000
 
ion      s     py     pz     px    dxy    dyz    dz2    dxz  x2-y2    tot
    1  0.004  0.005  0.032  0.011  0.014  0.041  0.046  0.081  0.002  0.235
 
band     9 # energy   33.97466506 # occ.  0.00000000
 
ion      s     py     pz     px    dxy    dyz    dz2    dxz  x2-y2    tot
    1  0.000  0.097  0.020  0.216  0.089  0.071  0.005  0.003  0.096  0.598
 
band    10 # energy   33.97467235 # occ.  0.00000000
 
ion      s     py     pz     px    dxy    dyz    dz2    dxz  x2-y2    tot
    1  0.000  0.199  0.091  0.043  0.087  0.001  0.023  0.064  0.090  0.597
 
band    11 # energy   34.84507780 # occ.  0.00000000
 
ion      s     py     pz     px    dxy    dyz    dz2    dxz  x2-y2    tot
    1  0.046  0.026  0.159  0.053  0.000  0.001  0.001  0.002  0.000  0.289
 
band    12 # energy   36.26457789 # occ.  0.00000000
 
ion      s     py     pz     px    dxy    dyz    dz2    dxz  x2-y2    tot
    1  0.000  0.081  0.002  0.047  0.012  0.129  0.008  0.068  0.094  0.441
 

 k-point     9 :    0.25000000 0.25000000 0.25000000     weight = 0.00390625

band     1 # energy    3.19123654 # occ.  2.00000000
 
ion      s     py     pz     px    dxy    dyz    dz2    dxz  x2-y2    tot
    1  0.618  0.010  0.057  0.019  0.010  0.029  0.033  0.059  0.001  0.836
 
band     2 # energy    7.17930368 # occ.  2.00000000
 
ion      s     py     pz     px    dxy    dyz    dz2    dxz  x2-y2    tot
    1  0.045  0.012  0.072  0.024  0.057  0.170  0.191  0.340  0.007  0.919
 
band     3 # energy    7.88928930 # occ.  2.00000000
 
ion      s     py     pz     px    dxy    dyz    dz2    dxz  x2-y2    tot
    1  0.000  0.000  0.000  0.002  0.463  0.264  0.037  0.000  0.200  0.966
 
band     4 # energy    7.88929323 # occ.  2.00000000
 
ion      s     py     pz     px    dxy    dyz    dz2    dxz  x2-y2    tot
    1  0.000  0.002  0.001  0.000  0.182  0.003  0.061  0.246  0.472  0.966
 
band     5 # energy    9.83867359 # occ.  2.00000000
 
ion      s     py     pz     px    dxy    dyz    dz2    dxz  x2-y2    tot
    1  0.000  0.002  0.001  0.000  0.246  0.206  0.505  0.000  0.005  0.966
 
band     6 # energy    9.83867418 # occ.  2.00000000
 
ion      s     py     pz     px    dxy    dyz    dz2    dxz  x2-y2    tot
    1  0.000  0.001  0.000  0.002  0.002  0.276  0.119  0.289  0.277  0.966
 
band     7 # energy   24.63351170 # occ.  0.00000000
 
ion      s     py     pz     px    dxy    dyz    dz2    dxz  x2-y2    tot
    1  0.113  0.028  0.170  0.057  0.014  0.043  0.049  0.087  0.002  0.563
 
band     8 # energy   27.68265934 # occ.  0.00000000
 
ion      s     py     pz     px    dxy    dyz    dz2    dxz  x2-y2    tot
    1  0.004  0.005  0.032  0.011  0.014  0.041  0.046  0.081  0.002  0.235
 
band     9 # energy   33.97466172 # occ.  0.00000000
 
ion      s     py     pz     px    dxy    dyz    dz2    dxz  x2-y2    tot
    1  0.000  0.049  0.039  0.245  0.122  0.071  0.010  0.000  0.061  0.598
 
band    10 # energy   33.97466724 # occ.  0.00000000
 
ion      s     py     pz     px    dxy    dyz    dz2    dxz  x2-y2    tot
    1  0.000  0.248  0.072  0.014  0.053  0.001  0.018  0.067  0.125  0.598
 
band    11 # energy   34.84507813 # occ.  0.00000000
 
ion      s     py     pz     px    dxy    dyz    dz2    dxz  x2-y2    tot
    1  0.046  0.026  0.159  0.053  0.000  0.001  0.001  0.002  0.000  0.289
 
band    12 # energy   36.26456281 # occ.  0.00000000
 
ion      s     py     pz     px    dxy    dyz    dz2    dxz  x2-y2    tot
    1  0.000  0.078  0.007  0.045  0.020  0.116  0.034  0.060  0.082  0.441
 

 k-point    10 :    0.37500000 0.00000000 0.00000000     weight = 0.00390625

band     1 # energy    3.97040814 # occ.  2.00000000
 
ion      s     py     pz     px    dxy    dyz    dz2    dxz  x2-y2    tot
    1  0.342  0.003  0.000  0.023  0.158  0.000  0.133  0.000  0.242  0.901
 
band     2 # energy    7.61255524 # occ.  2.00000000
 
ion      s     py     pz     px    dxy    dyz    dz2    dxz  x2-y2    tot
    1  0.000  0.000  0.001  0.000  0.041  0.760  0.135  0.013  0.012  0.962
 
band     3 # energy    7.61255758 # occ.  2.00000000
 
ion      s     py     pz     px    dxy    dyz    dz2    dxz  x2-y2    tot
    1  0.000  0.000  0.000  0.000  0.170  0.185  0.555  0.003  0.048  0.962
 
band     4 # energy    8.85302134 # occ.  2.00000000
 
ion      s     py     pz     px    dxy    dyz    dz2    dxz  x2-y2    tot
    1  0.133  0.047  0.000  0.374  0.081  0.000  0.068  0.000  0.124  0.827
 
band     5 # energy   10.79110195 # occ.  2.00000000
 
ion      s     py     pz     px    dxy    dyz    dz2    dxz  x2-y2    tot
    1  0.000  0.000  0.003  0.000  0.018  0.015  0.001  0.917  0.018  0.973
 
band     6 # energy   10.79110248 # occ.  2.00000000
 
ion      s     py     pz     px    dxy    dyz    dz2    dxz  x2-y2    tot
    1  0.000  0.003  0.000  0.000  0.449  0.001  0.031  0.037  0.452  0.973
 
band     7 # energy   20.11094022 # occ.  0.00000000
 
ion      s     py     pz     px    dxy    dyz    dz2    dxz  x2-y2    tot
    1  0.290  0.027  0.000  0.218  0.095  0.000  0.080  0.000  0.145  0.855
 
band     8 # energy   26.21976214 # occ.  0.00000000
 
ion      s     py     pz     px    dxy    dyz    dz2    dxz  x2-y2    tot
    1  0.003  0.005  0.000  0.040  0.013  0.000  0.011  0.000  0.020  0.090
 
band     9 # energy   31.73020484 # occ.  0.00000000
 
ion      s     py     pz     px    dxy    dyz    dz2    dxz  x2-y2    tot
    1  0.000  0.056  0.414  0.007  0.002  0.011  0.004  0.066  0.006  0.566
 
band    10 # energy   31.73021582 # occ.  0.00000000
 
ion      s     py     pz     px    dxy    dyz    dz2    dxz  x2-y2    tot
    1  0.000  0.368  0.063  0.046  0.011  0.002  0.026  0.010  0.041  0.566
 
band    11 # energy   37.72804595 # occ.  0.00000000
 
ion      s     py     pz     px    dxy    dyz    dz2    dxz  x2-y2    tot
    1  0.077  0.008  0.000  0.063  0.060  0.000  0.050  0.000  0.091  0.349
 
band    12 # energy   37.97375419 # occ.  0.00000000
 
ion      s     py     pz     px    dxy    dyz    dz2    dxz  x2-y2    tot
    1  0.000  0.010  0.006  0.001  0.197  0.219  0.270  0.006  0.001  0.708
 

 k-point    11 :    0.00000000 0.37500000 0.00000000     weight = 0.00390625

band     1 # energy    3.97040994 # occ.  2.00000000
 
ion      s     py     pz     px    dxy    dyz    dz2    dxz  x2-y2    tot
    1  0.342  0.026  0.000  0.000  0.000  0.000  0.133  0.000  0.400  0.901
 
band     2 # energy    7.61255536 # occ.  2.00000000
 
ion      s     py     pz     px    dxy    dyz    dz2    dxz  x2-y2    tot
    1  0.000  0.000  0.000  0.001  0.039  0.002  0.651  0.052  0.217  0.962
 
band     3 # energy    7.61255915 # occ.  2.00000000
 
ion      s     py     pz     px    dxy    dyz    dz2    dxz  x2-y2    tot
    1  0.000  0.000  0.001  0.000  0.002  0.039  0.039  0.868  0.013  0.962
 
band     4 # energy    8.85302221 # occ.  2.00000000
 
ion      s     py     pz     px    dxy    dyz    dz2    dxz  x2-y2    tot
    1  0.133  0.420  0.000  0.000  0.000  0.000  0.068  0.000  0.205  0.827
 
band     5 # energy   10.79110138 # occ.  2.00000000
 
ion      s     py     pz     px    dxy    dyz    dz2    dxz  x2-y2    tot
    1  0.000  0.000  0.002  0.001  0.237  0.690  0.008  0.032  0.003  0.973
 
band     6 # energy   10.79110157 # occ.  2.00000000
 
ion      s     py     pz     px    dxy    dyz    dz2    dxz  x2-y2    tot
    1  0.000  0.000  0.001  0.002  0.690  0.237  0.024  0.011  0.008  0.973
 
band     7 # energy   20.11094634 # occ.  0.00000000
 
ion      s     py     pz     px    dxy    dyz    dz2    dxz  x2-y2    tot
    1  0.290  0.245  0.000  0.000  0.000  0.000  0.080  0.000  0.240  0.855
 
band     8 # energy   26.21976106 # occ.  0.00000000
 
ion      s     py     pz     px    dxy    dyz    dz2    dxz  x2-y2    tot
    1  0.003  0.044  0.000  0.000  0.000  0.000  0.011  0.000  0.032  0.090
 
band     9 # energy   31.73020071 # occ.  0.00000000
 
ion      s     py     pz     px    dxy    dyz    dz2    dxz  x2-y2    tot
    1  0.000  0.000  0.329  0.148  0.015  0.034  0.009  0.027  0.003  0.566
 
band    10 # energy   31.73020926 # occ.  0.00000000
 
ion      s     py     pz     px    dxy    dyz    dz2    dxz  x2-y2    tot
    1  0.000  0.000  0.148  0.329  0.034  0.015  0.020  0.012  0.007  0.566
 
band    11 # energy   37.72826860 # occ.  0.00000000
 
ion      s     py     pz     px    dxy    dyz    dz2    dxz  x2-y2    tot
    1  0.076  0.071  0.000  0.000  0.000  0.000  0.058  0.000  0.143  0.347
 
band    12 # energy   37.97375339 # occ.  0.00000000
 
ion      s     py     pz     px    dxy    dyz    dz2    dxz  x2-y2    tot
    1  0.000  0.000  0.011  0.006  0.055  0.104  0.138  0.347  0.046  0.708
 

 k-point    12 :    0.00000000 0.00000000 0.37500000     weight = 0.00390625

band     1 # energy    3.97040931 # occ.  2.00000000
 
ion      s     py     pz     px    dxy    dyz    dz2    dxz  x2-y2    tot
    1  0.342  0.003  0.017  0.006  0.040  0.119  0.133  0.237  0.005  0.901
 
band     2 # energy    7.61255472 # occ.  2.00000000
 
ion      s     py     pz     px    dxy    dyz    dz2    dxz  x2-y2    tot
    1  0.000  0.000  0.000  0.000  0.330  0.391  0.002  0.054  0.184  0.962
 
band     3 # energy    7.61255996 # occ.  2.00000000
 
ion      s     py     pz     px    dxy    dyz    dz2    dxz  x2-y2    tot
    1  0.000  0.000  0.000  0.000  0.431  0.004  0.010  0.217  0.299  0.962
 
band     4 # energy    8.85302140 # occ.  2.00000000
 
ion      s     py     pz     px    dxy    dyz    dz2    dxz  x2-y2    tot
    1  0.133  0.047  0.280  0.093  0.020  0.061  0.068  0.122  0.003  0.827
 
band     5 # energy   10.79110123 # occ.  2.00000000
 
ion      s     py     pz     px    dxy    dyz    dz2    dxz  x2-y2    tot
    1  0.000  0.000  0.001  0.002  0.031  0.004  0.647  0.198  0.091  0.973
 
band     6 # energy   10.79110184 # occ.  2.00000000
 
ion      s     py     pz     px    dxy    dyz    dz2    dxz  x2-y2    tot
    1  0.000  0.003  0.000  0.000  0.097  0.350  0.069  0.067  0.386  0.973
 
band     7 # energy   20.11094342 # occ.  0.00000000
 
ion      s     py     pz     px    dxy    dyz    dz2    dxz  x2-y2    tot
    1  0.290  0.027  0.163  0.054  0.024  0.071  0.080  0.142  0.003  0.855
 
band     8 # energy   26.21976158 # occ.  0.00000000
 
ion      s     py     pz     px    dxy    dyz    dz2    dxz  x2-y2    tot