unknown system                          
            1
     2.402521    0.000000    1.387096
     0.800840    2.265118    1.387096
     0.000000    0.000000    2.774192
   Pt
     1
Direct configuration=     1
   0.00000000  0.00000000  0.00000000
