 vasp.6.2.0 18Jan21 (build Feb  1 2022 01:28:57) complex                         
 executed on             LinuxPGI date 2022.05.18  19:39:09
 running on   16 total cores
 distrk:  each k-point on   16 cores,    1 groups
 distr:  one band on NCORE=   4 cores,    4 groups


--------------------------------------------------------------------------------------------------------


 INCAR:
   ALGO = 38
   EDIFF = 0.0001
   EDIFFG = -0.03
   ENCUT = 420
   GGA = RP
   IBRION = 2
   ISIF = 0
   ISMEAR = 0
   ISPIN = 1
   ISYM = 0
   LASPH = False
   LORBIT = 11
   LREAL = False
   LVTOT = False
   LWAVE = False
   NCORE = 4
   NELM = 60
   NELMIN = 4
   NSW = 0
   PREC = Normal
   SIGMA = 0.05
   SYMPREC = 1e-05

 POTCAR:    PAW_PBE Pt 04Feb2005                  
 POTCAR:    PAW_PBE Pt 04Feb2005                  
   SHA256 =  3ed90460adef76debcff1cfb73ee1349b515b1a3db03439735b44de3a8db7dc8 Pt/POTCAR             
   COPYR  = (c) Copyright 04Feb2005 Georg Kresse                                                    
   COPYR  = This file is part of the software VASP. Any use, copying, and all other rights are regul
   COPYR  = If you do not have a valid VASP license, you may not use, copy or distribute this file. 
   VRHFIN =Pt: s1d9                                                                                 
   LEXCH  = PE                                                                                      
   EATOM  =   729.1176 eV,   53.5886 Ry                                                             
                                                                                                    
   TITEL  = PAW_PBE Pt 04Feb2005                                                                    
   LULTRA =        F    use ultrasoft PP ?                                                          
   IUNSCR =        1    unscreen: 0-lin 1-nonlin 2-no                                               
   RPACOR =    2.330    partial core radius                                                         
   POMASS =  195.080; ZVAL   =   10.000    mass and valenz                                          
   RCORE  =    2.600    outmost cutoff radius                                                       
   RWIGS  =    2.750; RWIGS  =    1.455    wigner-seitz radius (au A)                               
   ENMAX  =  230.283; ENMIN  =  172.712 eV                                                          
   ICORE  =        3    local potential                                                             
   LCOR   =        T    correct aug charges                                                         
   LPAW   =        T    paw PP                                                                      
   EAUG   =  358.966                                                                                
   DEXC   =    0.000                                                                                
   RMAX   =    2.658    core radius for proj-oper                                                   
   RAUG   =    1.300    factor for augmentation sphere                                              
   RDEP   =    2.761    radius for radial grids                                                     
   RDEPT  =    2.203    core radius for aug-charge                                                  
                                                                                                    
   Atomic configuration                                                                             
   16 entries                                                                                       
     n  l   j            E        occ.                                                              
     1  0  0.50    -78401.1885   2.0000                                                             
     2  0  0.50    -13770.7750   2.0000                                                             
     2  1  1.50    -11931.0468   6.0000                                                             
     3  0  0.50     -3234.7234   2.0000                                                             
     3  1  1.50     -2699.2216   6.0000                                                             
     3  2  2.50     -2119.5714  10.0000                                                             
     4  0  0.50      -695.1528   2.0000                                                             
     4  1  1.50      -519.6034   6.0000                                                             
     4  2  2.50      -306.6786  10.0000                                                             
     4  3  3.50       -70.1041  14.0000                                                             
     5  0  0.50      -101.7747   2.0000                                                             
     5  1  1.50       -55.9873   6.0000                                                             
     5  2  2.50        -6.1423   9.0000                                                             
     6  0  0.50        -5.6573   1.0000                                                             
     6  1  1.50        -6.8029   0.0000                                                             
     5  3  2.50        -1.3606   0.0000                                                             
   Description                                                                                      
     l       E           TYP  RCUT    TYP  RCUT                                                     
     2     -6.1423404     23  2.500                                                                 
     2     -7.5029230     23  2.500                                                                 
     0     -5.6573207     23  2.500                                                                 
     0      0.7416693     23  2.500                                                                 
     1     -2.7211652     23  2.600                                                                 
     1     20.4087390     23  2.600                                                                 
     3     -1.3605826     23  2.500                                                                 
  local pseudopotential read in
  partial core-charges read in
  partial kinetic energy density read in
  atomic valenz-charges read in
  non local Contribution for L=            2  read in
    real space projection operators read in
  non local Contribution for L=            2  read in
    real space projection operators read in
  non local Contribution for L=            0  read in
    real space projection operators read in
  non local Contribution for L=            0  read in
    real space projection operators read in
  non local Contribution for L=            1  read in
    real space projection operators read in
  non local Contribution for L=            1  read in
    real space projection operators read in
    PAW grid and wavefunctions read in
 
   number of l-projection  operators is LMAX  =            6
   number of lm-projection operators is LMMAX =           18
 
 -----------------------------------------------------------------------------
|                                                                             |
|               ----> ADVICE to this user running VASP <----                  |
|                                                                             |
|     You enforced a specific xc type in the INCAR file but a different       |
|     type was found in the POTCAR file.                                      |
|     I HOPE YOU KNOW WHAT YOU ARE DOING!                                     |
|                                                                             |
 -----------------------------------------------------------------------------

  PAW_PBE Pt 04Feb2005                  :
 energy of atom  1       EATOM= -729.1176
 kinetic energy error for atom=    0.0052 (will be added to EATOM!!)
 
 
 POSCAR: Pt1
  positions in direct lattice
  velocities in cartesian coordinates
 exchange correlation table for  LEXCH =        9
   RHO(1)=    0.500       N(1)  =     2000
   RHO(2)=  100.500       N(2)  =     4000
 


--------------------------------------------------------------------------------------------------------


 ion  position               nearest neighbor table
   1  0.000  0.000  0.000-
 

IMPORTANT INFORMATION: All symmetrisations will be switched off!
NOSYMM: (Re-)initialisation of all symmetry stuff for point group C_1.


----------------------------------------------------------------------------------------

                                     Primitive cell                                     

  volume of cell :      13.5589

  direct lattice vectors                    reciprocal lattice vectors
     2.317988000  0.000004000  1.338304000     0.431409275 -0.152527060 -0.000000682
     0.772668000  2.185417000  1.338304000    -0.000000296  0.457579205 -0.000000855
     0.000006000  0.000005000  2.676588000    -0.215706101 -0.152527212  0.373610753

  length of vectors
     2.676588494  2.676587547  2.676588000     0.457578918  0.457579205  0.457579137

  position of ions in fractional coordinates (direct lattice)
     0.000000000  0.000000000  0.000000000

  ion indices of the primitive-cell ions
   primitive index   ion index
                 1           1

----------------------------------------------------------------------------------------

 
 -----------------------------------------------------------------------------
|                                                                             |
|           W    W    AA    RRRRR   N    N  II  N    N   GGGG   !!!           |
|           W    W   A  A   R    R  NN   N  II  NN   N  G    G  !!!           |
|           W    W  A    A  R    R  N N  N  II  N N  N  G       !!!           |
|           W WW W  AAAAAA  RRRRR   N  N N  II  N  N N  G  GGG   !            |
|           WW  WW  A    A  R   R   N   NN  II  N   NN  G    G                |
|           W    W  A    A  R    R  N    N  II  N    N   GGGG   !!!           |
|                                                                             |
|     The requested file  could not be found or opened for reading            |
|     k-point information. Automatic k-point generation is used as a          |
|     fallback, which may lead to unwanted results.                           |
|                                                                             |
 -----------------------------------------------------------------------------

 

Automatic generation of k-mesh.
 Grid dimensions derived from KSPACING:
 generate k-points for:    6    6    6

 Generating k-lattice:

  Cartesian coordinates                     Fractional coordinates (reciprocal lattice)
     0.071901546 -0.025421177 -0.000000114     0.166666667 -0.000000000  0.000000000
    -0.000000049  0.076263201 -0.000000142     0.000000000  0.166666667  0.000000000
    -0.035951017 -0.025421202  0.062268459    -0.000000000 -0.000000000  0.166666667

  Length of vectors
     0.076263153  0.076263201  0.076263190

  Shift w.r.t. Gamma in fractional coordinates (k-lattice)
     0.000000000  0.000000000  0.000000000

 
 Subroutine IBZKPT returns following result:
 ===========================================
 
 Found    112 irreducible k-points:
 
 Following reciprocal coordinates:
            Coordinates               Weight
  0.000000  0.000000  0.000000      1.000000
  0.166667  0.000000  0.000000      2.000000
  0.000000  0.166667  0.000000      2.000000
  0.000000  0.000000  0.166667      2.000000
  0.166667  0.166667  0.166667      2.000000
  0.333333  0.000000  0.000000      2.000000
  0.000000  0.333333  0.000000      2.000000
  0.000000  0.000000  0.333333      2.000000
  0.333333  0.333333  0.333333      2.000000
  0.500000  0.000000  0.000000      1.000000
  0.000000  0.500000  0.000000      1.000000
  0.000000  0.000000  0.500000      1.000000
  0.500000  0.500000  0.500000      1.000000
  0.166667  0.166667  0.000000      2.000000
  0.000000  0.166667  0.166667      2.000000
  0.166667  0.000000  0.166667      2.000000
  0.333333  0.166667  0.000000      2.000000
  0.000000  0.333333  0.166667      2.000000
  0.166667  0.000000  0.333333      2.000000
  0.166667  0.166667 -0.166667      2.000000
  0.333333  0.166667  0.333333      2.000000
  0.166667  0.333333  0.000000      2.000000
  0.166667 -0.166667 -0.166667      2.000000
  0.333333  0.333333  0.166667      2.000000
  0.000000  0.166667  0.333333      2.000000
 -0.166667  0.166667 -0.166667      2.000000
  0.166667  0.333333  0.333333      2.000000
  0.333333  0.000000  0.166667      2.000000
  0.500000  0.166667  0.000000      2.000000
  0.000000  0.500000  0.166667      2.000000
  0.166667  0.000000  0.500000      2.000000
  0.166667  0.166667 -0.333333      2.000000
  0.500000  0.333333  0.500000      2.000000
  0.166667  0.500000  0.000000      2.000000
  0.333333 -0.166667 -0.166667      2.000000
  0.500000  0.500000  0.333333      2.000000
  0.000000  0.166667  0.500000      2.000000
 -0.166667  0.333333 -0.166667      2.000000
  0.333333  0.500000  0.500000      2.000000
  0.500000  0.000000  0.166667      2.000000
 -0.333333  0.166667  0.000000      2.000000
  0.000000 -0.333333  0.166667      2.000000
  0.166667  0.000000 -0.333333      2.000000
  0.166667  0.166667  0.500000      2.000000
 -0.333333  0.500000 -0.333333      2.000000
  0.166667 -0.333333  0.000000      2.000000
  0.500000 -0.166667 -0.166667      2.000000
 -0.333333 -0.333333  0.500000      2.000000
  0.000000  0.166667 -0.333333      2.000000
 -0.166667  0.500000 -0.166667      2.000000
  0.500000 -0.333333 -0.333333      2.000000
 -0.333333  0.000000  0.166667      2.000000
 -0.166667  0.166667  0.000000      2.000000
  0.000000 -0.166667  0.166667      2.000000
  0.166667  0.000000 -0.166667      2.000000
  0.166667  0.166667  0.333333      2.000000
 -0.166667 -0.333333 -0.166667      2.000000
 -0.333333 -0.166667 -0.166667      2.000000
  0.333333  0.333333  0.000000      2.000000
  0.000000  0.333333  0.333333      2.000000
  0.333333  0.000000  0.333333      2.000000
  0.500000  0.333333  0.000000      2.000000
  0.000000  0.500000  0.333333      2.000000
  0.333333  0.000000  0.500000      2.000000
  0.333333  0.333333 -0.166667      2.000000
  0.500000  0.166667  0.500000      2.000000
  0.333333  0.500000  0.000000      2.000000
  0.166667 -0.333333 -0.333333      2.000000
  0.500000  0.500000  0.166667      2.000000
  0.000000  0.333333  0.500000      2.000000
 -0.333333  0.166667 -0.333333      2.000000
  0.166667  0.500000  0.500000      2.000000
  0.500000  0.000000  0.333333      2.000000
 -0.333333  0.333333  0.000000      2.000000
  0.000000 -0.333333  0.333333      2.000000
  0.333333  0.000000 -0.333333      2.000000
  0.333333  0.333333 -0.333333      2.000000
 -0.333333  0.333333 -0.333333      2.000000
  0.333333 -0.333333 -0.333333      2.000000
  0.500000  0.500000  0.000000      1.000000
  0.000000  0.500000  0.500000      1.000000
  0.500000  0.000000  0.500000      1.000000
  0.500000  0.333333  0.166667      2.000000
  0.166667  0.500000  0.333333      2.000000
  0.333333  0.166667  0.500000      2.000000
  0.333333  0.166667 -0.166667      2.000000
  0.500000  0.166667  0.333333      2.000000
  0.166667 -0.333333 -0.166667      2.000000
  0.166667  0.333333 -0.166667      2.000000
  0.166667 -0.166667 -0.333333      2.000000
  0.333333  0.500000  0.166667      2.000000
 -0.166667  0.166667 -0.333333      2.000000
 -0.333333  0.166667 -0.166667      2.000000
  0.166667  0.333333  0.500000      2.000000
 -0.333333  0.333333  0.166667      2.000000
  0.166667 -0.333333  0.333333      2.000000
  0.333333  0.166667 -0.333333      2.000000
 -0.333333  0.333333  0.500000      2.000000
  0.166667  0.500000 -0.166667      2.000000
  0.333333 -0.166667 -0.333333      2.000000
  0.500000 -0.333333  0.333333      2.000000
 -0.166667  0.166667  0.500000      2.000000
 -0.333333  0.333333 -0.166667      2.000000
  0.333333  0.500000 -0.333333      2.000000
  0.500000 -0.166667  0.166667      2.000000
 -0.166667 -0.333333  0.333333      2.000000
 -0.333333  0.500000  0.166667      2.000000
  0.166667 -0.333333  0.500000      2.000000
  0.500000  0.166667 -0.333333      2.000000
  0.500000  0.333333 -0.166667      2.000000
 -0.333333  0.166667  0.500000      2.000000
  0.166667  0.500000 -0.333333      2.000000
 
 Following cartesian coordinates:
            Coordinates               Weight
  0.000000  0.000000  0.000000      1.000000
  0.071902 -0.025421 -0.000000      2.000000
 -0.000000  0.076263 -0.000000      2.000000
 -0.035951 -0.025421  0.062268      2.000000
  0.035950  0.025421  0.062268      2.000000
  0.143803 -0.050842 -0.000000      2.000000
 -0.000000  0.152526 -0.000000      2.000000
 -0.071902 -0.050842  0.124537      2.000000
  0.071901  0.050842  0.124536      2.000000
  0.215705 -0.076264 -0.000000      1.000000
 -0.000000  0.228790 -0.000000      1.000000
 -0.107853 -0.076264  0.186805      1.000000
  0.107851  0.076262  0.186805      1.000000
  0.071901  0.050842 -0.000000      2.000000
 -0.035951  0.050842  0.062268      2.000000
  0.035951 -0.050842  0.062268      2.000000
  0.143803  0.025421 -0.000000      2.000000
 -0.035951  0.127105  0.062268      2.000000
 -0.000000 -0.076264  0.124537      2.000000
  0.107853  0.076263 -0.062269      2.000000
  0.071901 -0.025422  0.124537      2.000000
  0.071901  0.127105 -0.000000      2.000000
  0.107853 -0.076263 -0.062268      2.000000
  0.107852  0.076263  0.062268      2.000000
 -0.071902  0.025421  0.124537      2.000000
 -0.035951  0.127106 -0.062268      2.000000
 -0.000001  0.076263  0.124537      2.000000
  0.107852 -0.076264  0.062268      2.000000
  0.215705 -0.000000 -0.000000      2.000000
 -0.035951  0.203368  0.062268      2.000000
 -0.035952 -0.101685  0.186805      2.000000
  0.143804  0.101684 -0.124537      2.000000
  0.107851 -0.000001  0.186805      2.000000
  0.071901  0.203368 -0.000001      2.000000
  0.179754 -0.101684 -0.062269      2.000000
  0.143802  0.101684  0.124536      2.000000
 -0.107853 -0.000000  0.186805      2.000000
 -0.035951  0.203369 -0.062269      2.000000
  0.035950  0.101684  0.186805      2.000000
  0.179754 -0.101685  0.062268      2.000000
 -0.143803  0.127106  0.000000      2.000000
 -0.035951 -0.177948  0.062269      2.000000
  0.143804  0.025421 -0.124537      2.000000
 -0.035952 -0.025422  0.186805      2.000000
 -0.071901  0.330474 -0.124537      2.000000
  0.071902 -0.177948  0.000000      2.000000
  0.251656 -0.127106 -0.062269      2.000000
 -0.251656 -0.177948  0.186806      2.000000
  0.071902  0.127106 -0.124537      2.000000
 -0.035951  0.279632 -0.062269      2.000000
  0.287607 -0.177948 -0.124537      2.000000
 -0.179754  0.025421  0.062269      2.000000
 -0.071902  0.101684 -0.000000      2.000000
 -0.035951 -0.101684  0.062269      2.000000
  0.107853  0.000000 -0.062269      2.000000
 -0.000001 -0.000000  0.124537      2.000000
 -0.035950 -0.101684 -0.062268      2.000000
 -0.107852  0.000000 -0.062268      2.000000
  0.143803  0.101684 -0.000001      2.000000
 -0.071902  0.101684  0.124537      2.000000
  0.071901 -0.101685  0.124537      2.000000
  0.215705  0.076263 -0.000001      2.000000
 -0.071902  0.177947  0.124536      2.000000
  0.035950 -0.127106  0.186805      2.000000
  0.179754  0.127105 -0.062269      2.000000
  0.107852 -0.076264  0.186805      2.000000
  0.143803  0.177947 -0.000001      2.000000
  0.143804 -0.127105 -0.124537      2.000000
  0.179753  0.127105  0.062268      2.000000
 -0.107853  0.076263  0.186805      2.000000
 -0.071901  0.177948 -0.124537      2.000000
 -0.035952  0.127105  0.186805      2.000000
  0.143803 -0.127106  0.124537      2.000000
 -0.143803  0.203369 -0.000000      2.000000
 -0.071902 -0.203369  0.124537      2.000000
  0.215705  0.000000 -0.124537      2.000000
  0.215705  0.152526 -0.124537      2.000000
 -0.071901  0.254211 -0.124537      2.000000
  0.215705 -0.152526 -0.124537      2.000000
  0.215704  0.152526 -0.000001      1.000000
 -0.107853  0.152526  0.186805      1.000000
  0.107852 -0.152527  0.186805      1.000000
  0.179754  0.050842  0.062268      2.000000
 -0.000001  0.152526  0.124536      2.000000
  0.035950 -0.050843  0.186805      2.000000
  0.179754  0.050842 -0.062269      2.000000
  0.143803 -0.050843  0.124536      2.000000
  0.107853 -0.152526 -0.062268      2.000000
  0.107852  0.152526 -0.062269      2.000000
  0.143804 -0.050842 -0.124537      2.000000
  0.107852  0.152526  0.062268      2.000000
  0.000000  0.152527 -0.124537      2.000000
 -0.107852  0.152527 -0.062268      2.000000
 -0.035952  0.050842  0.186805      2.000000
 -0.179754  0.177948  0.062268      2.000000
 -0.000000 -0.228790  0.124537      2.000000
  0.215705  0.076263 -0.124537      2.000000
 -0.251656  0.127105  0.186805      2.000000
  0.107852  0.228790 -0.062269      2.000000
  0.215705 -0.076263 -0.124537      2.000000
  0.143803 -0.279632  0.124537      2.000000
 -0.179755  0.025421  0.186805      2.000000
 -0.107852  0.228790 -0.062269      2.000000
  0.215705  0.228790 -0.124538      2.000000
  0.179754 -0.177948  0.062268      2.000000
 -0.143803 -0.177948  0.124537      2.000000
 -0.179754  0.254211  0.062268      2.000000
 -0.035951 -0.254211  0.186806      2.000000
  0.287607  0.050842 -0.124537      2.000000
  0.251656  0.101684 -0.062269      2.000000
 -0.251656  0.050842  0.186805      2.000000
  0.143803  0.254211 -0.124537      2.000000
 


--------------------------------------------------------------------------------------------------------




 Dimension of arrays:
   k-points           NKPTS =    112   k-points in BZ     NKDIM =    112   number of bands    NBANDS=     12
   number of dos      NEDOS =    301   number of ions     NIONS =      1
   non local maximal  LDIM  =      6   non local SUM 2l+1 LMDIM =     18
   total plane-waves  NPLWV =   2744
   max r-space proj   IRMAX =      1   max aug-charges    IRDMAX=  12455
   dimension x,y,z NGX =    14 NGY =   14 NGZ =   14
   dimension x,y,z NGXF=    28 NGYF=   28 NGZF=   28
   support grid    NGXF=    28 NGYF=   28 NGZF=   28
   ions per type =               1
   NGX,Y,Z   is equivalent  to a cutoff of   8.70,  8.70,  8.70 a.u.
   NGXF,Y,Z  is equivalent  to a cutoff of  17.39, 17.39, 17.39 a.u.

 SYSTEM =  unknown system                          
 POSCAR =  Pt1                                     

 Startparameter for this run:
   NWRITE =      2    write-flag & timer
   PREC   = normal    normal or accurate (medium, high low for compatibility)
   ISTART =      0    job   : 0-new  1-cont  2-samecut
   ICHARG =      2    charge: 1-file 2-atom 10-const
   ISPIN  =      1    spin polarized calculation?
   LNONCOLLINEAR =      F non collinear calculations
   LSORBIT =      F    spin-orbit coupling
   INIWAV =      1    electr: 0-lowe 1-rand  2-diag
   LASPH  =      F    aspherical Exc in radial PAW
   METAGGA=      F    non-selfconsistent MetaGGA calc.

 Electronic Relaxation 1
   ENCUT  =  420.0 eV  30.87 Ry    5.56 a.u.   4.47  4.47  4.47*2*pi/ulx,y,z
   ENINI  =  420.0     initial cutoff
   ENAUG  =  359.0 eV  augmentation charge cutoff
   NELM   =     60;   NELMIN=  4; NELMDL= -5     # of ELM steps 
   EDIFF  = 0.1E-03   stopping-criterion for ELM
   LREAL  =      F    real-space projection
   NLSPLINE    = F    spline interpolate recip. space projectors
   LCOMPAT=      F    compatible to vasp.4.4
   GGA_COMPAT  = T    GGA compatible to vasp.4.4-vasp.4.6
   LMAXPAW     = -100 max onsite density
   LMAXMIX     =    2 max onsite mixed and CHGCAR
   VOSKOWN=      0    Vosko Wilk Nusair interpolation
   ROPT   =    0.00000
 Ionic relaxation
   EDIFFG = -.3E-01   stopping-criterion for IOM
   NSW    =      0    number of steps for IOM
   NBLOCK =      1;   KBLOCK =      1    inner block; outer block 
   IBRION =     -1    ionic relax: 0-MD 1-quasi-New 2-CG
   NFREE  =      1    steps in history (QN), initial steepest desc. (CG)
   ISIF   =      0    stress and relaxation
   IWAVPR =     10    prediction:  0-non 1-charg 2-wave 3-comb
   ISYM   =      0    0-nonsym 1-usesym 2-fastsym
   LCORR  =      T    Harris-Foulkes like correction to forces

   POTIM  = 0.5000    time-step for ionic-motion
   TEIN   =    0.0    initial temperature
   TEBEG  =    0.0;   TEEND  =   0.0 temperature during run
   SMASS  =  -3.00    Nose mass-parameter (am)
   estimated Nose-frequenzy (Omega)   =  0.10E-29 period in steps = 0.13E+47 mass=  -0.164E-27a.u.
   SCALEE = 1.0000    scale energy and forces
   NPACO  =    256;   APACO  = 16.0  distance and # of slots for P.C.
   PSTRESS=    0.0 pullay stress

  Mass of Ions in am
   POMASS = 195.08
  Ionic Valenz
   ZVAL   =  10.00
  Atomic Wigner-Seitz radii
   RWIGS  =  -1.00
  virtual crystal weights 
   VCA    =   1.00
   NELECT =      10.0000    total number of electrons
   NUPDOWN=      -1.0000    fix difference up-down

 DOS related values:
   EMIN   =  10.00;   EMAX   =-10.00  energy-range for DOS
   EFERMI =   0.00
   ISMEAR =     0;   SIGMA  =   0.05  broadening in eV -4-tet -1-fermi 0-gaus

 Electronic relaxation 2 (details)
   IALGO  =     38    algorithm
   LDIAG  =      T    sub-space diagonalisation (order eigenvalues)
   LSUBROT=      F    optimize rotation matrix (better conditioning)
   TURBO    =      0    0=normal 1=particle mesh
   IRESTART =      0    0=no restart 2=restart with 2 vectors
   NREBOOT  =      0    no. of reboots
   NMIN     =      0    reboot dimension
   EREF     =   0.00    reference energy to select bands
   IMIX   =      4    mixing-type and parameters
     AMIX     =   0.40;   BMIX     =  1.00
     AMIX_MAG =   1.60;   BMIX_MAG =  1.00
     AMIN     =   0.10
     WC   =   100.;   INIMIX=   1;  MIXPRE=   1;  MAXMIX= -45

 Intra band minimization:
   WEIMIN = 0.0000     energy-eigenvalue tresh-hold
   EBREAK =  0.21E-05  absolut break condition
   DEPER  =   0.30     relativ break condition  

   TIME   =   0.40     timestep for ELM

  volume/ion in A,a.u.               =      13.56        91.50
  Fermi-wavevector in a.u.,A,eV,Ry     =   1.479107  2.795107 29.766241  2.187757
  Thomas-Fermi vector in A             =   2.593305
 
 Write flags
   LWAVE        =      F    write WAVECAR
   LDOWNSAMPLE  =      F    k-point downsampling of WAVECAR
   LCHARG       =      T    write CHGCAR
   LVTOT        =      F    write LOCPOT, total local potential
   LVHAR        =      F    write LOCPOT, Hartree potential only
   LELF         =      F    write electronic localiz. function (ELF)
   LORBIT       =     11    0 simple, 1 ext, 2 COOP (PROOUT), +10 PAW based schemes


 Dipole corrections
   LMONO  =      F    monopole corrections only (constant potential shift)
   LDIPOL =      F    correct potential (dipole corrections)
   IDIPOL =      0    1-x, 2-y, 3-z, 4-all directions 
   EPSILON=  1.0000000 bulk dielectric constant

 Exchange correlation treatment:
   GGA     =    RP    GGA type
   LEXCH   =     9    internal setting for exchange type
   VOSKOWN=      0    Vosko Wilk Nusair interpolation
   LHFCALC =     F    Hartree Fock is set to
   LHFONE  =     F    Hartree Fock one center treatment
   AEXX    =    0.0000 exact exchange contribution

 Linear response parameters
   LEPSILON=     F    determine dielectric tensor
   LRPA    =     F    only Hartree local field effects (RPA)
   LNABLA  =     F    use nabla operator in PAW spheres
   LVEL    =     F    velocity operator in full k-point grid
   LINTERFAST=   F  fast interpolation
   KINTER  =     0    interpolate to denser k-point grid
   CSHIFT  =0.1000    complex shift for real part using Kramers Kronig
   OMEGAMAX=  -1.0    maximum frequency
   DEG_THRESHOLD= 0.2000000E-02 threshold for treating states as degnerate
   RTIME   =   -0.100 relaxation time in fs
  (WPLASMAI=    0.000 imaginary part of plasma frequency in eV, 0.658/RTIME)
   DFIELD  = 0.0000000 0.0000000 0.0000000 field for delta impulse in time
 
 Orbital magnetization related:
   ORBITALMAG=     F  switch on orbital magnetization
   LCHIMAG   =     F  perturbation theory with respect to B field
   DQ        =  0.001000  dq finite difference perturbation B field
   LLRAUG    =     F  two centre corrections for induced B field



--------------------------------------------------------------------------------------------------------


 Static calculation
 charge density and potential will be updated during run
 non-spin polarized calculation
 Variant of blocked Davidson
 Davidson routine will perform the subspace rotation
 perform sub-space diagonalisation
    after iterative eigenvector-optimisation
 modified Broyden-mixing scheme, WC =      100.0
 initial mixing is a Kerker type mixing with AMIX =  0.4000 and BMIX =      1.0000
 Hartree-type preconditioning will be used
 using additional bands             7
 reciprocal scheme for non local part
 use partial core corrections
 calculate Harris-corrections to forces 
   (improved forces if not selfconsistent)
 use gradient corrections 
 use of overlap-Matrix (Vanderbilt PP)
 Gauss-broadening in eV      SIGMA  =   0.05


--------------------------------------------------------------------------------------------------------


  energy-cutoff  :      420.00
  volume of cell :       13.56
      direct lattice vectors                 reciprocal lattice vectors
     2.317988000  0.000004000  1.338304000     0.431409275 -0.152527060 -0.000000682
     0.772668000  2.185417000  1.338304000    -0.000000296  0.457579205 -0.000000855
     0.000006000  0.000005000  2.676588000    -0.215706101 -0.152527212  0.373610753

  length of vectors
     2.676588494  2.676587547  2.676588000     0.457578918  0.457579205  0.457579137


 
 k-points in units of 2pi/SCALE and weight: read from INCAR                         
   0.00000000  0.00000000  0.00000000       0.005
   0.07190155 -0.02542118 -0.00000011       0.009
  -0.00000005  0.07626320 -0.00000014       0.009
  -0.03595102 -0.02542120  0.06226846       0.009
   0.03595048  0.02542082  0.06226820       0.009
   0.14380309 -0.05084235 -0.00000023       0.009
  -0.00000010  0.15252640 -0.00000028       0.009
  -0.07190203 -0.05084240  0.12453692       0.009
   0.07190096  0.05084164  0.12453641       0.009
   0.21570464 -0.07626353 -0.00000034       0.005
  -0.00000015  0.22878960 -0.00000043       0.005
  -0.10785305 -0.07626361  0.18680538       0.005
   0.10785144  0.07626247  0.18680461       0.005
   0.07190150  0.05084202 -0.00000026       0.009
  -0.03595107  0.05084200  0.06226832       0.009
   0.03595053 -0.05084238  0.06226835       0.009
   0.14380304  0.02542085 -0.00000037       0.009
  -0.03595112  0.12710520  0.06226817       0.009
  -0.00000049 -0.07626358  0.12453680       0.009
   0.10785251  0.07626323 -0.06226871       0.009
   0.07190101 -0.02542156  0.12453655       0.009
   0.07190145  0.12710522 -0.00000040       0.009
   0.10785261 -0.07626318 -0.06226843       0.009
   0.10785198  0.07626285  0.06226795       0.009
  -0.07190208  0.02542080  0.12453678       0.009
  -0.03595058  0.12710558 -0.06226849       0.009
  -0.00000059  0.07626282  0.12453652       0.009
   0.10785207 -0.07626356  0.06226823       0.009
   0.21570459 -0.00000033 -0.00000048       0.009
  -0.03595116  0.20336840  0.06226803       0.009
  -0.03595150 -0.10168478  0.18680526       0.009
   0.14380353  0.10168443 -0.12453717       0.009
   0.10785149 -0.00000073  0.18680475       0.009
   0.07190140  0.20336843 -0.00000054       0.009
   0.17975416 -0.10168435 -0.06226854       0.009
   0.14380246  0.10168367  0.12453615       0.009
  -0.10785310 -0.00000041  0.18680523       0.009
  -0.03595063  0.20336878 -0.06226863       0.009
   0.03594989  0.10168364  0.18680472       0.009
   0.17975362 -0.10168473  0.06226812       0.009
  -0.14380314  0.12710555  0.00000008       0.009
  -0.03595092 -0.17794760  0.06226874       0.009
   0.14380358  0.02542123 -0.12453703       0.009
  -0.03595155 -0.02542158  0.18680512       0.009
  -0.07190121  0.33047436 -0.12453712       0.009
   0.07190164 -0.17794758  0.00000017       0.009
   0.25165570 -0.12710553 -0.06226866       0.009
  -0.25165604 -0.17794765  0.18680589       0.009
   0.07190198  0.12710560 -0.12453706       0.009
  -0.03595068  0.27963198 -0.06226877       0.009
   0.28760677 -0.17794753 -0.12453697       0.009
  -0.17975411  0.02542115  0.06226869       0.009
  -0.07190160  0.10168438 -0.00000003       0.009
  -0.03595097 -0.10168440  0.06226860       0.009
   0.10785256  0.00000003 -0.06226857       0.009
  -0.00000054 -0.00000038  0.12453666       0.009
  -0.03595043 -0.10168402 -0.06226806       0.009
  -0.10785203  0.00000035 -0.06226809       0.009
   0.14380299  0.10168405 -0.00000051       0.009
  -0.07190213  0.10168400  0.12453663       0.009
   0.07190106 -0.10168476  0.12453669       0.009
   0.21570454  0.07626287 -0.00000063       0.009
  -0.07190218  0.17794720  0.12453649       0.009
   0.03595004 -0.12710596  0.18680515       0.009
   0.17975401  0.12710525 -0.06226897       0.009
   0.10785154 -0.07626394  0.18680489       0.009
   0.14380294  0.17794725 -0.00000065       0.009
   0.14380368 -0.12710517 -0.12453675       0.009
   0.17975347  0.12710487  0.06226769       0.009
  -0.10785315  0.07626280  0.18680509       0.009
  -0.07190111  0.17794796 -0.12453683       0.009
  -0.03595165  0.12710482  0.18680484       0.009
   0.14380260 -0.12710593  0.12453658       0.009
  -0.14380319  0.20336875 -0.00000006       0.009
  -0.07190194 -0.20336881  0.12453720       0.009
   0.21570513  0.00000005 -0.12453714       0.009
   0.21570503  0.15252645 -0.12453743       0.009
  -0.07190116  0.25421116 -0.12453698       0.009
   0.21570522 -0.15252635 -0.12453686       0.009
   0.21570449  0.15252607 -0.00000077       0.005
  -0.10785320  0.15252600  0.18680495       0.005
   0.10785159 -0.15252714  0.18680504       0.005
   0.17975352  0.05084167  0.06226783       0.009
  -0.00000064  0.15252602  0.12453638       0.009
   0.03594999 -0.05084276  0.18680501       0.009
   0.17975406  0.05084205 -0.06226883       0.009
   0.14380255 -0.05084273  0.12453643       0.009
   0.10785266 -0.15252638 -0.06226829       0.009
   0.10785246  0.15252643 -0.06226886       0.009
   0.14380363 -0.05084197 -0.12453689       0.009
   0.10785193  0.15252605  0.06226780       0.009
   0.00000044  0.15252678 -0.12453695       0.009
  -0.10785212  0.15252676 -0.06226837       0.009
  -0.03595160  0.05084162  0.18680498       0.009
  -0.17975421  0.17794755  0.06226840       0.009
  -0.00000039 -0.22878998  0.12453709       0.009
   0.21570508  0.07626325 -0.12453729       0.009
  -0.25165624  0.12710515  0.18680532       0.009
   0.10785241  0.22878963 -0.06226900       0.009
   0.21570517 -0.07626315 -0.12453700       0.009
   0.14380270 -0.27963234  0.12453686       0.009
  -0.17975465  0.02542077  0.18680535       0.009
  -0.10785217  0.22878996 -0.06226852       0.009
   0.21570498  0.22878965 -0.12453757       0.009
   0.17975367 -0.17794793  0.06226826       0.009
  -0.14380348 -0.17794763  0.12453732       0.009
  -0.17975426  0.25421075  0.06226826       0.009
  -0.03595141 -0.25421118  0.18680555       0.009
   0.28760662  0.05084208 -0.12453740       0.009
   0.25165556  0.10168407 -0.06226908       0.009
  -0.25165619  0.05084195  0.18680546       0.009
   0.14380343  0.25421083 -0.12453746       0.009
 
 k-points in reciprocal lattice and weights: read from INCAR                         
   0.00000000  0.00000000  0.00000000       0.005
   0.16666667  0.00000000  0.00000000       0.009
   0.00000000  0.16666667  0.00000000       0.009
   0.00000000  0.00000000  0.16666667       0.009
   0.16666667  0.16666667  0.16666667       0.009
   0.33333333  0.00000000  0.00000000       0.009
   0.00000000  0.33333333  0.00000000       0.009
   0.00000000  0.00000000  0.33333333       0.009
   0.33333333  0.33333333  0.33333333       0.009
   0.50000000  0.00000000  0.00000000       0.005
   0.00000000  0.50000000  0.00000000       0.005
   0.00000000  0.00000000  0.50000000       0.005
   0.50000000  0.50000000  0.50000000       0.005
   0.16666667  0.16666667  0.00000000       0.009
   0.00000000  0.16666667  0.16666667       0.009
   0.16666667  0.00000000  0.16666667       0.009
   0.33333333  0.16666667  0.00000000       0.009
   0.00000000  0.33333333  0.16666667       0.009
   0.16666667  0.00000000  0.33333333       0.009
   0.16666667  0.16666667 -0.16666667       0.009
   0.33333333  0.16666667  0.33333333       0.009
   0.16666667  0.33333333  0.00000000       0.009
   0.16666667 -0.16666667 -0.16666667       0.009
   0.33333333  0.33333333  0.16666667       0.009
   0.00000000  0.16666667  0.33333333       0.009
  -0.16666667  0.16666667 -0.16666667       0.009
   0.16666667  0.33333333  0.33333333       0.009
   0.33333333  0.00000000  0.16666667       0.009
   0.50000000  0.16666667  0.00000000       0.009
   0.00000000  0.50000000  0.16666667       0.009
   0.16666667  0.00000000  0.50000000       0.009
   0.16666667  0.16666667 -0.33333333       0.009
   0.50000000  0.33333333  0.50000000       0.009
   0.16666667  0.50000000  0.00000000       0.009
   0.33333333 -0.16666667 -0.16666667       0.009
   0.50000000  0.50000000  0.33333333       0.009
   0.00000000  0.16666667  0.50000000       0.009
  -0.16666667  0.33333333 -0.16666667       0.009
   0.33333333  0.50000000  0.50000000       0.009
   0.50000000  0.00000000  0.16666667       0.009
  -0.33333333  0.16666667  0.00000000       0.009
   0.00000000 -0.33333333  0.16666667       0.009
   0.16666667  0.00000000 -0.33333333       0.009
   0.16666667  0.16666667  0.50000000       0.009
  -0.33333333  0.50000000 -0.33333333       0.009
   0.16666667 -0.33333333  0.00000000       0.009
   0.50000000 -0.16666667 -0.16666667       0.009
  -0.33333333 -0.33333333  0.50000000       0.009
   0.00000000  0.16666667 -0.33333333       0.009
  -0.16666667  0.50000000 -0.16666667       0.009
   0.50000000 -0.33333333 -0.33333333       0.009
  -0.33333333  0.00000000  0.16666667       0.009
  -0.16666667  0.16666667  0.00000000       0.009
   0.00000000 -0.16666667  0.16666667       0.009
   0.16666667  0.00000000 -0.16666667       0.009
   0.16666667  0.16666667  0.33333333       0.009
  -0.16666667 -0.33333333 -0.16666667       0.009
  -0.33333333 -0.16666667 -0.16666667       0.009
   0.33333333  0.33333333  0.00000000       0.009
   0.00000000  0.33333333  0.33333333       0.009
   0.33333333  0.00000000  0.33333333       0.009
   0.50000000  0.33333333  0.00000000       0.009
   0.00000000  0.50000000  0.33333333       0.009
   0.33333333  0.00000000  0.50000000       0.009
   0.33333333  0.33333333 -0.16666667       0.009
   0.50000000  0.16666667  0.50000000       0.009
   0.33333333  0.50000000  0.00000000       0.009
   0.16666667 -0.33333333 -0.33333333       0.009
   0.50000000  0.50000000  0.16666667       0.009
   0.00000000  0.33333333  0.50000000       0.009
  -0.33333333  0.16666667 -0.33333333       0.009
   0.16666667  0.50000000  0.50000000       0.009
   0.50000000  0.00000000  0.33333333       0.009
  -0.33333333  0.33333333  0.00000000       0.009
   0.00000000 -0.33333333  0.33333333       0.009
   0.33333333  0.00000000 -0.33333333       0.009
   0.33333333  0.33333333 -0.33333333       0.009
  -0.33333333  0.33333333 -0.33333333       0.009
   0.33333333 -0.33333333 -0.33333333       0.009
   0.50000000  0.50000000  0.00000000       0.005
   0.00000000  0.50000000  0.50000000       0.005
   0.50000000  0.00000000  0.50000000       0.005
   0.50000000  0.33333333  0.16666667       0.009
   0.16666667  0.50000000  0.33333333       0.009
   0.33333333  0.16666667  0.50000000       0.009
   0.33333333  0.16666667 -0.16666667       0.009
   0.50000000  0.16666667  0.33333333       0.009
   0.16666667 -0.33333333 -0.16666667       0.009
   0.16666667  0.33333333 -0.16666667       0.009
   0.16666667 -0.16666667 -0.33333333       0.009
   0.33333333  0.50000000  0.16666667       0.009
  -0.16666667  0.16666667 -0.33333333       0.009
  -0.33333333  0.16666667 -0.16666667       0.009
   0.16666667  0.33333333  0.50000000       0.009
  -0.33333333  0.33333333  0.16666667       0.009
   0.16666667 -0.33333333  0.33333333       0.009
   0.33333333  0.16666667 -0.33333333       0.009
  -0.33333333  0.33333333  0.50000000       0.009
   0.16666667  0.50000000 -0.16666667       0.009
   0.33333333 -0.16666667 -0.33333333       0.009
   0.50000000 -0.33333333  0.33333333       0.009
  -0.16666667  0.16666667  0.50000000       0.009
  -0.33333333  0.33333333 -0.16666667       0.009
   0.33333333  0.50000000 -0.33333333       0.009
   0.50000000 -0.16666667  0.16666667       0.009
  -0.16666667 -0.33333333  0.33333333       0.009
  -0.33333333  0.50000000  0.16666667       0.009
   0.16666667 -0.33333333  0.50000000       0.009
   0.50000000  0.16666667 -0.33333333       0.009
   0.50000000  0.33333333 -0.16666667       0.009
  -0.33333333  0.16666667  0.50000000       0.009
   0.16666667  0.50000000 -0.33333333       0.009
 
 position of ions in fractional coordinates (direct lattice) 
   0.00000000  0.00000000  0.00000000
 
 position of ions in cartesian coordinates  (Angst):
   0.00000000  0.00000000  0.00000000
 


--------------------------------------------------------------------------------------------------------


 k-point   1 :   0.0000 0.0000 0.0000  plane waves:     283
 k-point   2 :   0.1667 0.0000 0.0000  plane waves:     274
 k-point   3 :   0.0000 0.1667 0.0000  plane waves:     274
 k-point   4 :   0.0000 0.0000 0.1667  plane waves:     274
 k-point   5 :   0.1667 0.1667 0.1667  plane waves:     274
 k-point   6 :   0.3333 0.0000 0.0000  plane waves:     268
 k-point   7 :   0.0000 0.3333 0.0000  plane waves:     268
 k-point   8 :   0.0000 0.0000 0.3333  plane waves:     268
 k-point   9 :   0.3333 0.3333 0.3333  plane waves:     268
 k-point  10 :   0.5000 0.0000 0.0000  plane waves:     266
 k-point  11 :   0.0000 0.5000 0.0000  plane waves:     266
 k-point  12 :   0.0000 0.0000 0.5000  plane waves:     266
 k-point  13 :   0.5000 0.5000 0.5000  plane waves:     266
 k-point  14 :   0.1667 0.1667 0.0000  plane waves:     270
 k-point  15 :   0.0000 0.1667 0.1667  plane waves:     270
 k-point  16 :   0.1667 0.0000 0.1667  plane waves:     270
 k-point  17 :   0.3333 0.1667 0.0000  plane waves:     270
 k-point  18 :   0.0000 0.3333 0.1667  plane waves:     270
 k-point  19 :   0.1667 0.0000 0.3333  plane waves:     270
 k-point  20 :   0.1667 0.1667-0.1667  plane waves:     270
 k-point  21 :   0.3333 0.1667 0.3333  plane waves:     270
 k-point  22 :   0.1667 0.3333 0.0000  plane waves:     270
 k-point  23 :   0.1667-0.1667-0.1667  plane waves:     270
 k-point  24 :   0.3333 0.3333 0.1667  plane waves:     270
 k-point  25 :   0.0000 0.1667 0.3333  plane waves:     270
 k-point  26 :  -0.1667 0.1667-0.1667  plane waves:     270
 k-point  27 :   0.1667 0.3333 0.3333  plane waves:     270
 k-point  28 :   0.3333 0.0000 0.1667  plane waves:     270
 k-point  29 :   0.5000 0.1667 0.0000  plane waves:     263
 k-point  30 :   0.0000 0.5000 0.1667  plane waves:     263
 k-point  31 :   0.1667 0.0000 0.5000  plane waves:     263
 k-point  32 :   0.1667 0.1667-0.3333  plane waves:     263
 k-point  33 :   0.5000 0.3333 0.5000  plane waves:     263
 k-point  34 :   0.1667 0.5000 0.0000  plane waves:     263
 k-point  35 :   0.3333-0.1667-0.1667  plane waves:     263
 k-point  36 :   0.5000 0.5000 0.3333  plane waves:     263
 k-point  37 :   0.0000 0.1667 0.5000  plane waves:     263
 k-point  38 :  -0.1667 0.3333-0.1667  plane waves:     263
 k-point  39 :   0.3333 0.5000 0.5000  plane waves:     263
 k-point  40 :   0.5000 0.0000 0.1667  plane waves:     263
 k-point  41 :  -0.3333 0.1667 0.0000  plane waves:     262
 k-point  42 :   0.0000-0.3333 0.1667  plane waves:     262
 k-point  43 :   0.1667 0.0000-0.3333  plane waves:     262
 k-point  44 :   0.1667 0.1667 0.5000  plane waves:     262
 k-point  45 :  -0.3333 0.5000-0.3333  plane waves:     262
 k-point  46 :   0.1667-0.3333 0.0000  plane waves:     262
 k-point  47 :   0.5000-0.1667-0.1667  plane waves:     262
 k-point  48 :  -0.3333-0.3333 0.5000  plane waves:     262
 k-point  49 :   0.0000 0.1667-0.3333  plane waves:     262
 k-point  50 :  -0.1667 0.5000-0.1667  plane waves:     262
 k-point  51 :   0.5000-0.3333-0.3333  plane waves:     262
 k-point  52 :  -0.3333 0.0000 0.1667  plane waves:     262
 k-point  53 :  -0.1667 0.1667 0.0000  plane waves:     269
 k-point  54 :   0.0000-0.1667 0.1667  plane waves:     269
 k-point  55 :   0.1667 0.0000-0.1667  plane waves:     269
 k-point  56 :   0.1667 0.1667 0.3333  plane waves:     269
 k-point  57 :  -0.1667-0.3333-0.1667  plane waves:     269
 k-point  58 :  -0.3333-0.1667-0.1667  plane waves:     269
 k-point  59 :   0.3333 0.3333 0.0000  plane waves:     266
 k-point  60 :   0.0000 0.3333 0.3333  plane waves:     266
 k-point  61 :   0.3333 0.0000 0.3333  plane waves:     266
 k-point  62 :   0.5000 0.3333 0.0000  plane waves:     261
 k-point  63 :   0.0000 0.5000 0.3333  plane waves:     261
 k-point  64 :   0.3333 0.0000 0.5000  plane waves:     261
 k-point  65 :   0.3333 0.3333-0.1667  plane waves:     261
 k-point  66 :   0.5000 0.1667 0.5000  plane waves:     261
 k-point  67 :   0.3333 0.5000 0.0000  plane waves:     261
 k-point  68 :   0.1667-0.3333-0.3333  plane waves:     261
 k-point  69 :   0.5000 0.5000 0.1667  plane waves:     261
 k-point  70 :   0.0000 0.3333 0.5000  plane waves:     261
 k-point  71 :  -0.3333 0.1667-0.3333  plane waves:     261
 k-point  72 :   0.1667 0.5000 0.5000  plane waves:     261
 k-point  73 :   0.5000 0.0000 0.3333  plane waves:     261
 k-point  74 :  -0.3333 0.3333 0.0000  plane waves:     268
 k-point  75 :   0.0000-0.3333 0.3333  plane waves:     268
 k-point  76 :   0.3333 0.0000-0.3333  plane waves:     268
 k-point  77 :   0.3333 0.3333-0.3333  plane waves:     268
 k-point  78 :  -0.3333 0.3333-0.3333  plane waves:     268
 k-point  79 :   0.3333-0.3333-0.3333  plane waves:     268
 k-point  80 :   0.5000 0.5000 0.0000  plane waves:     254
 k-point  81 :   0.0000 0.5000 0.5000  plane waves:     254
 k-point  82 :   0.5000 0.0000 0.5000  plane waves:     254
 k-point  83 :   0.5000 0.3333 0.1667  plane waves:     260
 k-point  84 :   0.1667 0.5000 0.3333  plane waves:     260
 k-point  85 :   0.3333 0.1667 0.5000  plane waves:     260
 k-point  86 :   0.3333 0.1667-0.1667  plane waves:     260
 k-point  87 :   0.5000 0.1667 0.3333  plane waves:     260
 k-point  88 :   0.1667-0.3333-0.1667  plane waves:     260
 k-point  89 :   0.1667 0.3333-0.1667  plane waves:     260
 k-point  90 :   0.1667-0.1667-0.3333  plane waves:     260
 k-point  91 :   0.3333 0.5000 0.1667  plane waves:     260
 k-point  92 :  -0.1667 0.1667-0.3333  plane waves:     260
 k-point  93 :  -0.3333 0.1667-0.1667  plane waves:     260
 k-point  94 :   0.1667 0.3333 0.5000  plane waves:     260
 k-point  95 :  -0.3333 0.3333 0.1667  plane waves:     262
 k-point  96 :   0.1667-0.3333 0.3333  plane waves:     262
 k-point  97 :   0.3333 0.1667-0.3333  plane waves:     262
 k-point  98 :  -0.3333 0.3333 0.5000  plane waves:     262
 k-point  99 :   0.1667 0.5000-0.1667  plane waves:     262
 k-point 100 :   0.3333-0.1667-0.3333  plane waves:     262
 k-point 101 :   0.5000-0.3333 0.3333  plane waves:     262
 k-point 102 :  -0.1667 0.1667 0.5000  plane waves:     262
 k-point 103 :  -0.3333 0.3333-0.1667  plane waves:     262
 k-point 104 :   0.3333 0.5000-0.3333  plane waves:     262
 k-point 105 :   0.5000-0.1667 0.1667  plane waves:     262
 k-point 106 :  -0.1667-0.3333 0.3333  plane waves:     262
 k-point 107 :  -0.3333 0.5000 0.1667  plane waves:     262
 k-point 108 :   0.1667-0.3333 0.5000  plane waves:     262
 k-point 109 :   0.5000 0.1667-0.3333  plane waves:     262
 k-point 110 :   0.5000 0.3333-0.1667  plane waves:     262
 k-point 111 :  -0.3333 0.1667 0.5000  plane waves:     262
 k-point 112 :   0.1667 0.5000-0.3333  plane waves:     262

 maximum and minimum number of plane-waves per node :        77       46

 maximum number of plane-waves:       283
 maximum index in each direction: 
   IXMAX=    4   IYMAX=    4   IZMAX=    4
   IXMIN=   -4   IYMIN=   -4   IZMIN=   -4


 parallel 3D FFT for wavefunctions:
    minimum data exchange during FFTs selected (reduces bandwidth)
 parallel 3D FFT for charge:
    minimum data exchange during FFTs selected (reduces bandwidth)


 total amount of memory used by VASP MPI-rank0    31948. kBytes
=======================================================================

   base      :      30000. kBytes
   nonl-proj :       1226. kBytes
   fftplans  :         80. kBytes
   grid      :        111. kBytes
   one-center:         15. kBytes
   wavefun   :        516. kBytes
 
     INWAV:  cpu time    0.0000: real time    0.0000
 Broyden mixing: mesh for mixing (old mesh)
   NGX =  9   NGY =  9   NGZ =  9
  (NGX  = 28   NGY  = 28   NGZ  = 28)
  gives a total of    729 points

 initial charge density was supplied:
 charge density of overlapping atoms calculated
 number of electron      10.0000000 magnetization 
 keeping initial charge density in first step


--------------------------------------------------------------------------------------------------------


 Maximum index for augmentation-charges           818 (set IRDMAX)


--------------------------------------------------------------------------------------------------------


 First call to EWALD:  gamma=   0.743
 Maximum number of real-space cells 3x 3x 3
 Maximum number of reciprocal cells 3x 3x 3

    FEWALD:  cpu time    0.0009: real time    0.0009


--------------------------------------- Iteration      1(   1)  ---------------------------------------


    POTLOK:  cpu time    0.0136: real time    0.0137
    SETDIJ:  cpu time    0.0054: real time    0.0054
     EDDAV:  cpu time    0.4397: real time    0.4404
       DOS:  cpu time    0.0014: real time    0.0014
    --------------------------------------------
      LOOP:  cpu time    0.4601: real time    0.4608

 eigenvalue-minimisations  :  2816
 total energy-change (2. order) : 0.3580039E+02  (-0.4678749E+03)
 number of electron      10.0000000 magnetization 
 augmentation part       10.0000000 magnetization 

 Free energy of the ion-electron system (eV)
  ---------------------------------------------------
  alpha Z        PSCENC =        70.10742624
  Ewald energy   TEWEN  =      -872.08148489
  -Hartree energ DENC   =       -62.47307127
  -exchange      EXHF   =         0.00000000
  -V(xc)+E(xc)   XCENC  =         4.06612516
  PAW double counting   =       696.70595042     -667.45827301
  entropy T*S    EENTRO =        -0.00045091
  eigenvalues    EBANDS =       138.61496115
  atomic energy  EATOM  =       728.31920932
  Solvation  Ediel_sol  =         0.00000000
  ---------------------------------------------------
  free energy    TOTEN  =        35.80039221 eV

  energy without entropy =       35.80084312  energy(sigma->0) =       35.80061766


--------------------------------------------------------------------------------------------------------




--------------------------------------- Iteration      1(   2)  ---------------------------------------


     EDDAV:  cpu time    0.4575: real time    0.4610
       DOS:  cpu time    0.0014: real time    0.0014
    --------------------------------------------
      LOOP:  cpu time    0.4589: real time    0.4624

 eigenvalue-minimisations  :  3216
 total energy-change (2. order) :-0.4085373E+02  (-0.3901099E+02)
 number of electron      10.0000000 magnetization 
 augmentation part       10.0000000 magnetization 

 Free energy of the ion-electron system (eV)
  ---------------------------------------------------
  alpha Z        PSCENC =        70.10742624
  Ewald energy   TEWEN  =      -872.08148489
  -Hartree energ DENC   =       -62.47307127
  -exchange      EXHF   =         0.00000000
  -V(xc)+E(xc)   XCENC  =         4.06612516
  PAW double counting   =       696.70595042     -667.45827301
  entropy T*S    EENTRO =        -0.00126043
  eigenvalues    EBANDS =        97.76204211
  atomic energy  EATOM  =       728.31920932
  Solvation  Ediel_sol  =         0.00000000
  ---------------------------------------------------
  free energy    TOTEN  =        -5.05333635 eV

  energy without entropy =       -5.05207592  energy(sigma->0) =       -5.05270614


--------------------------------------------------------------------------------------------------------




--------------------------------------- Iteration      1(   3)  ---------------------------------------


     EDDAV:  cpu time    0.4822: real time    0.4829
       DOS:  cpu time    0.0015: real time    0.0015
    --------------------------------------------
      LOOP:  cpu time    0.4837: real time    0.4844

 eigenvalue-minimisations  :  3284
 total energy-change (2. order) :-0.5239890E+00  (-0.5231075E+00)
 number of electron      10.0000000 magnetization 
 augmentation part       10.0000000 magnetization 

 Free energy of the ion-electron system (eV)
  ---------------------------------------------------
  alpha Z        PSCENC =        70.10742624
  Ewald energy   TEWEN  =      -872.08148489
  -Hartree energ DENC   =       -62.47307127
  -exchange      EXHF   =         0.00000000
  -V(xc)+E(xc)   XCENC  =         4.06612516
  PAW double counting   =       696.70595042     -667.45827301
  entropy T*S    EENTRO =        -0.00146882
  eigenvalues    EBANDS =        97.23826154
  atomic energy  EATOM  =       728.31920932
  Solvation  Ediel_sol  =         0.00000000
  ---------------------------------------------------
  free energy    TOTEN  =        -5.57732531 eV

  energy without entropy =       -5.57585649  energy(sigma->0) =       -5.57659090


--------------------------------------------------------------------------------------------------------




--------------------------------------- Iteration      1(   4)  ---------------------------------------


     EDDAV:  cpu time    0.4733: real time    0.4794
       DOS:  cpu time    0.0015: real time    0.0015
    --------------------------------------------
      LOOP:  cpu time    0.4749: real time    0.4809

 eigenvalue-minimisations  :  3336
 total energy-change (2. order) :-0.1879684E-02  (-0.1879552E-02)
 number of electron      10.0000000 magnetization 
 augmentation part       10.0000000 magnetization 

 Free energy of the ion-electron system (eV)
  ---------------------------------------------------
  alpha Z        PSCENC =        70.10742624
  Ewald energy   TEWEN  =      -872.08148489
  -Hartree energ DENC   =       -62.47307127
  -exchange      EXHF   =         0.00000000
  -V(xc)+E(xc)   XCENC  =         4.06612516
  PAW double counting   =       696.70595042     -667.45827301
  entropy T*S    EENTRO =        -0.00146885
  eigenvalues    EBANDS =        97.23638188
  atomic energy  EATOM  =       728.31920932
  Solvation  Ediel_sol  =         0.00000000
  ---------------------------------------------------
  free energy    TOTEN  =        -5.57920499 eV

  energy without entropy =       -5.57773615  energy(sigma->0) =       -5.57847057


--------------------------------------------------------------------------------------------------------




--------------------------------------- Iteration      1(   5)  ---------------------------------------


     EDDAV:  cpu time    0.4941: real time    0.4951
       DOS:  cpu time    0.0015: real time    0.0015
    CHARGE:  cpu time    0.0086: real time    0.0086
    MIXING:  cpu time    0.0002: real time    0.0002
    --------------------------------------------
      LOOP:  cpu time    0.5044: real time    0.5054

 eigenvalue-minimisations  :  3444
 total energy-change (2. order) :-0.1294034E-04  (-0.1293906E-04)
 number of electron       9.9999999 magnetization 
 augmentation part        2.9342573 magnetization 

 Broyden mixing:
  rms(total) = 0.17103E+01    rms(broyden)= 0.17103E+01
  rms(prec ) = 0.22213E+01
  weight for this iteration     100.00

 Free energy of the ion-electron system (eV)
  ---------------------------------------------------
  alpha Z        PSCENC =        70.10742624
  Ewald energy   TEWEN  =      -872.08148489
  -Hartree energ DENC   =       -62.47307127
  -exchange      EXHF   =         0.00000000
  -V(xc)+E(xc)   XCENC  =         4.06612516
  PAW double counting   =       696.70595042     -667.45827301
  entropy T*S    EENTRO =        -0.00146884
  eigenvalues    EBANDS =        97.23636894
  atomic energy  EATOM  =       728.31920932
  Solvation  Ediel_sol  =         0.00000000
  ---------------------------------------------------
  free energy    TOTEN  =        -5.57921793 eV

  energy without entropy =       -5.57774909  energy(sigma->0) =       -5.57848351


--------------------------------------------------------------------------------------------------------




--------------------------------------- Iteration      1(   6)  ---------------------------------------


    POTLOK:  cpu time    0.0035: real time    0.0035
    SETDIJ:  cpu time    0.0042: real time    0.0043
     EDDAV:  cpu time    0.4562: real time    0.4594
       DOS:  cpu time    0.0016: real time    0.0016
    CHARGE:  cpu time    0.0079: real time    0.0079
    MIXING:  cpu time    0.0005: real time    0.0005
    --------------------------------------------
      LOOP:  cpu time    0.4739: real time    0.4771

 eigenvalue-minimisations  :  3108
 total energy-change (2. order) : 0.2717196E+00  (-0.4251891E-01)
 number of electron       9.9999999 magnetization 
 augmentation part        3.0239278 magnetization 

 Broyden mixing:
  rms(total) = 0.92351E+00    rms(broyden)= 0.92351E+00
  rms(prec ) = 0.10719E+01
  weight for this iteration     100.00

 eigenvalues of (default mixing * dielectric matrix)
  average eigenvalue GAMMA=   2.1372
  2.1372

 Free energy of the ion-electron system (eV)
  ---------------------------------------------------
  alpha Z        PSCENC =        70.10742624
  Ewald energy   TEWEN  =      -872.08148489
  -Hartree energ DENC   =       -56.55278059
  -exchange      EXHF   =         0.00000000
  -V(xc)+E(xc)   XCENC  =         3.88641399
  PAW double counting   =       836.66042059     -809.24729274
  entropy T*S    EENTRO =        -0.00173629
  eigenvalues    EBANDS =        93.60232605
  atomic energy  EATOM  =       728.31920932
  Solvation  Ediel_sol  =         0.00000000
  ---------------------------------------------------
  free energy    TOTEN  =        -5.30749832 eV

  energy without entropy =       -5.30576202  energy(sigma->0) =       -5.30663017


--------------------------------------------------------------------------------------------------------




--------------------------------------- Iteration      1(   7)  ---------------------------------------


    POTLOK:  cpu time    0.0032: real time    0.0032
    SETDIJ:  cpu time    0.0038: real time    0.0038
     EDDAV:  cpu time    0.4801: real time    0.4834
       DOS:  cpu time    0.0016: real time    0.0016
    CHARGE:  cpu time    0.0078: real time    0.0078
    MIXING:  cpu time    0.0004: real time    0.0003
    --------------------------------------------
      LOOP:  cpu time    0.4969: real time    0.5002

 eigenvalue-minimisations  :  3320
 total energy-change (2. order) : 0.5395101E-01  (-0.1699431E-01)
 number of electron       9.9999999 magnetization 
 augmentation part        3.0809924 magnetization 

 Broyden mixing:
  rms(total) = 0.22386E+00    rms(broyden)= 0.22386E+00
  rms(prec ) = 0.23114E+00
  weight for this iteration     100.00

 eigenvalues of (default mixing * dielectric matrix)
  average eigenvalue GAMMA=   2.1920
  1.5040  2.8801

 Free energy of the ion-electron system (eV)
  ---------------------------------------------------
  alpha Z        PSCENC =        70.10742624
  Ewald energy   TEWEN  =      -872.08148489
  -Hartree energ DENC   =       -52.54945816
  -exchange      EXHF   =         0.00000000
  -V(xc)+E(xc)   XCENC  =         3.77173720
  PAW double counting   =       997.37616878     -971.66752015
  entropy T*S    EENTRO =        -0.00174101
  eigenvalues    EBANDS =        91.47211537
  atomic energy  EATOM  =       728.31920932
  Solvation  Ediel_sol  =         0.00000000
  ---------------------------------------------------
  free energy    TOTEN  =        -5.25354731 eV

  energy without entropy =       -5.25180630  energy(sigma->0) =       -5.25267680


--------------------------------------------------------------------------------------------------------




--------------------------------------- Iteration      1(   8)  ---------------------------------------


    POTLOK:  cpu time    0.0034: real time    0.0034
    SETDIJ:  cpu time    0.0038: real time    0.0038
     EDDAV:  cpu time    0.4517: real time    0.4549
       DOS:  cpu time    0.0016: real time    0.0016
    CHARGE:  cpu time    0.0077: real time    0.0077
    MIXING:  cpu time    0.0003: real time    0.0003
    --------------------------------------------
      LOOP:  cpu time    0.4684: real time    0.4716

 eigenvalue-minimisations  :  2988
 total energy-change (2. order) : 0.3797825E-02  (-0.9399046E-03)
 number of electron       9.9999999 magnetization 
 augmentation part        3.0709268 magnetization 

 Broyden mixing:
  rms(total) = 0.56154E-01    rms(broyden)= 0.56154E-01
  rms(prec ) = 0.56285E-01
  weight for this iteration     100.00

 eigenvalues of (default mixing * dielectric matrix)
  average eigenvalue GAMMA=   1.6255
  2.5688  1.4844  0.8234

 Free energy of the ion-electron system (eV)
  ---------------------------------------------------
  alpha Z        PSCENC =        70.10742624
  Ewald energy   TEWEN  =      -872.08148489
  -Hartree energ DENC   =       -52.60653208
  -exchange      EXHF   =         0.00000000
  -V(xc)+E(xc)   XCENC  =         3.77444121
  PAW double counting   =      1061.28456867    -1036.11981451
  entropy T*S    EENTRO =        -0.00171175
  eigenvalues    EBANDS =        92.07414828
  atomic energy  EATOM  =       728.31920932
  Solvation  Ediel_sol  =         0.00000000
  ---------------------------------------------------
  free energy    TOTEN  =        -5.24974949 eV

  energy without entropy =       -5.24803774  energy(sigma->0) =       -5.24889361


--------------------------------------------------------------------------------------------------------




--------------------------------------- Iteration      1(   9)  ---------------------------------------


    POTLOK:  cpu time    0.0032: real time    0.0032
    SETDIJ:  cpu time    0.0037: real time    0.0037
     EDDAV:  cpu time    0.4657: real time    0.4716
       DOS:  cpu time    0.0015: real time    0.0015
    CHARGE:  cpu time    0.0077: real time    0.0077
    MIXING:  cpu time    0.0003: real time    0.0003
    --------------------------------------------
      LOOP:  cpu time    0.4821: real time    0.4880

 eigenvalue-minimisations  :  3204
 total energy-change (2. order) : 0.1977915E-03  (-0.1429637E-04)
 number of electron       9.9999999 magnetization 
 augmentation part        3.0721800 magnetization 

 Broyden mixing:
  rms(total) = 0.35370E-02    rms(broyden)= 0.35369E-02
  rms(prec ) = 0.44595E-02
  weight for this iteration     100.00

 eigenvalues of (default mixing * dielectric matrix)
  average eigenvalue GAMMA=   1.9972
  1.0072  1.4540  3.0353  2.4923

 Free energy of the ion-electron system (eV)
  ---------------------------------------------------
  alpha Z        PSCENC =        70.10742624
  Ewald energy   TEWEN  =      -872.08148489
  -Hartree energ DENC   =       -52.64060887
  -exchange      EXHF   =         0.00000000
  -V(xc)+E(xc)   XCENC  =         3.77536345
  PAW double counting   =      1049.36160220    -1024.07959311
  entropy T*S    EENTRO =        -0.00171653
  eigenvalues    EBANDS =        91.99025048
  atomic energy  EATOM  =       728.31920932
  Solvation  Ediel_sol  =         0.00000000
  ---------------------------------------------------
  free energy    TOTEN  =        -5.24955169 eV

  energy without entropy =       -5.24783517  energy(sigma->0) =       -5.24869343


--------------------------------------------------------------------------------------------------------




--------------------------------------- Iteration      1(  10)  ---------------------------------------


    POTLOK:  cpu time    0.0033: real time    0.0033
    SETDIJ:  cpu time    0.0037: real time    0.0037
     EDDAV:  cpu time    0.3518: real time    0.3524
       DOS:  cpu time    0.0014: real time    0.0014
    --------------------------------------------
      LOOP:  cpu time    0.3602: real time    0.3607

 eigenvalue-minimisations  :  1828
 total energy-change (2. order) :-0.6126433E-05  (-0.5003605E-06)
 number of electron       9.9999999 magnetization 
 augmentation part        3.0721800 magnetization 

 Free energy of the ion-electron system (eV)
  ---------------------------------------------------
  alpha Z        PSCENC =        70.10742624
  Ewald energy   TEWEN  =      -872.08148489
  -Hartree energ DENC   =       -52.64865965
  -exchange      EXHF   =         0.00000000
  -V(xc)+E(xc)   XCENC  =         3.77584556
  PAW double counting   =      1050.14749884    -1024.84401819
  entropy T*S    EENTRO =        -0.00171451
  eigenvalues    EBANDS =        91.97633945
  atomic energy  EATOM  =       728.31920932
  Solvation  Ediel_sol  =         0.00000000
  ---------------------------------------------------
  free energy    TOTEN  =        -5.24955782 eV

  energy without entropy =       -5.24784331  energy(sigma->0) =       -5.24870057


--------------------------------------------------------------------------------------------------------




 average (electrostatic) potential at core
  the test charge radii are     1.2059
  (the norm of the test charge is              1.0000)
       1 -61.1615
 
 
 
 E-fermi :  13.5568     XC(G=0): -14.0980     alpha+bet :-18.4791

 Fermi energy:        13.5567505213

 k-point     1 :       0.0000    0.0000    0.0000
  band No.  band energies     occupation 
      1       2.0724      2.00000
      2       8.9956      2.00000
      3       8.9957      2.00000
      4       8.9957      2.00000
      5      11.5558      2.00000
      6      11.5558      2.00000
      7      27.7538      0.00000
      8      33.3488      0.00000
      9      33.3491      0.00000
     10      33.3491      0.00000
     11      39.0985      0.00000
     12      45.8006      0.00000

 k-point     2 :       0.1667    0.0000    0.0000
  band No.  band energies     occupation 
      1       3.2280      2.00000
      2       8.5619      2.00000
      3       9.3762      2.00000
      4       9.3763      2.00000
      5      11.4152      2.00000
      6      11.4152      2.00000
      7      29.3909      0.00000
      8      29.7973      0.00000
      9      35.2901      0.00000
     10      35.2903      0.00000
     11      39.9987      0.00000
     12      42.9313      0.00000

 k-point     3 :       0.0000    0.1667    0.0000
  band No.  band energies     occupation 
      1       3.2280      2.00000
      2       8.5619      2.00000
      3       9.3762      2.00000
      4       9.3763      2.00000
      5      11.4152      2.00000
      6      11.4152      2.00000
      7      29.3909      0.00000
      8      29.7973      0.00000
      9      35.2901      0.00000
     10      35.2903      0.00000
     11      39.9987      0.00000
     12      42.9313      0.00000

 k-point     4 :       0.0000    0.0000    0.1667
  band No.  band energies     occupation 
      1       3.2280      2.00000
      2       8.5619      2.00000
      3       9.3762      2.00000
      4       9.3763      2.00000
      5      11.4152      2.00000
      6      11.4152      2.00000
      7      29.3909      0.00000
      8      29.7973      0.00000
      9      35.2901      0.00000
     10      35.2903      0.00000
     11      39.9987      0.00000
     12      42.9313      0.00000

 k-point     5 :       0.1667    0.1667    0.1667
  band No.  band energies     occupation 
      1       3.2279      2.00000
      2       8.5619      2.00000
      3       9.3763      2.00000
      4       9.3763      2.00000
      5      11.4153      2.00000
      6      11.4153      2.00000
      7      29.3909      0.00000
      8      29.7971      0.00000
      9      35.2903      0.00000
     10      35.2903      0.00000
     11      39.9985      0.00000
     12      42.9314      0.00000

 k-point     6 :       0.3333    0.0000    0.0000
  band No.  band energies     occupation 
      1       4.9092      2.00000
      2       9.2141      2.00000
      3       9.2143      2.00000
      4       9.6148      2.00000
      5      12.4925      2.00000
      6      12.4926      2.00000
      7      24.6022      0.00000
      8      28.9269      0.00000
      9      36.0615      0.00000
     10      36.0617      0.00000
     11      39.4552      0.00000
     12      40.2953      0.00000

 k-point     7 :       0.0000    0.3333    0.0000
  band No.  band energies     occupation 
      1       4.9092      2.00000
      2       9.2141      2.00000
      3       9.2143      2.00000
      4       9.6148      2.00000
      5      12.4925      2.00000
      6      12.4926      2.00000
      7      24.6022      0.00000
      8      28.9269      0.00000
      9      36.0615      0.00000
     10      36.0617      0.00000
     11      39.4552      0.00000
     12      40.2953      0.00000

 k-point     8 :       0.0000    0.0000    0.3333
  band No.  band energies     occupation 
      1       4.9092      2.00000
      2       9.2141      2.00000
      3       9.2143      2.00000
      4       9.6148      2.00000
      5      12.4925      2.00000
      6      12.4926      2.00000
      7      24.6022      0.00000
      8      28.9269      0.00000
      9      36.0615      0.00000
     10      36.0617      0.00000
     11      39.4552      0.00000
     12      40.2953      0.00000

 k-point     9 :       0.3333    0.3333    0.3333
  band No.  band energies     occupation 
      1       4.9091      2.00000
      2       9.2142      2.00000
      3       9.2142      2.00000
      4       9.6147      2.00000
      5      12.4926      2.00000
      6      12.4926      2.00000
      7      24.6020      0.00000
      8      28.9268      0.00000
      9      36.0617      0.00000
     10      36.0617      0.00000
     11      39.4552      0.00000
     12      40.2953      0.00000

 k-point    10 :       0.5000    0.0000    0.0000
  band No.  band energies     occupation 
      1       4.9984      2.00000
      2       8.9057      2.00000
      3       8.9058      2.00000
      4      12.6191      2.00000
      5      13.5495      1.16198
      6      13.5496      1.16037
      7      20.2484      0.00000
      8      27.3666      0.00000
      9      33.1944      0.00000
     10      33.1946      0.00000
     11      43.8518      0.00000
     12      43.8518      0.00000

 k-point    11 :       0.0000    0.5000    0.0000
  band No.  band energies     occupation 
      1       4.9984      2.00000
      2       8.9057      2.00000
      3       8.9058      2.00000
      4      12.6191      2.00000
      5      13.5495      1.16192
      6      13.5496      1.16032
      7      20.2484      0.00000
      8      27.3666      0.00000
      9      33.1944      0.00000
     10      33.1946      0.00000
     11      43.8518      0.00000
     12      43.8518      0.00000

 k-point    12 :       0.0000    0.0000    0.5000
  band No.  band energies     occupation 
      1       4.9984      2.00000
      2       8.9057      2.00000
      3       8.9058      2.00000
      4      12.6191      2.00000
      5      13.5495      1.16196
      6      13.5496      1.16031
      7      20.2484      0.00000
      8      27.3666      0.00000
      9      33.1944      0.00000
     10      33.1946      0.00000
     11      43.8518      0.00000
     12      43.8518      0.00000

 k-point    13 :       0.5000    0.5000    0.5000
  band No.  band energies     occupation 
      1       4.9984      2.00000
      2       8.9058      2.00000
      3       8.9058      2.00000
      4      12.6190      2.00000
      5      13.5495      1.16178
      6      13.5495      1.16169
      7      20.2482      0.00000
      8      27.3667      0.00000
      9      33.1946      0.00000
     10      33.1947      0.00000
     11      43.8519      0.00000
     12      43.8519      0.00000

 k-point    14 :       0.1667    0.1667    0.0000
  band No.  band energies     occupation 
      1       3.6299      2.00000
      2       7.9758      2.00000
      3       9.8838      2.00000
      4       9.8839      2.00000
      5      10.4372      2.00000
      6      11.9961      2.00000
      7      30.3354      0.00000
      8      31.5611      0.00000
      9      33.4533      0.00000
     10      33.4535      0.00000
     11      41.6554      0.00000
     12      41.6559      0.00000

 k-point    15 :       0.0000    0.1667    0.1667
  band No.  band energies     occupation 
      1       3.6299      2.00000
      2       7.9758      2.00000
      3       9.8838      2.00000
      4       9.8839      2.00000
      5      10.4372      2.00000
      6      11.9961      2.00000
      7      30.3354      0.00000
      8      31.5611      0.00000
      9      33.4532      0.00000
     10      33.4535      0.00000
     11      41.6553      0.00000
     12      41.6555      0.00000

 k-point    16 :       0.1667    0.0000    0.1667
  band No.  band energies     occupation 
      1       3.6299      2.00000
      2       7.9758      2.00000
      3       9.8839      2.00000
      4       9.8839      2.00000
      5      10.4372      2.00000
      6      11.9961      2.00000
      7      30.3354      0.00000
      8      31.5611      0.00000
      9      33.4533      0.00000
     10      33.4535      0.00000
     11      41.6553      0.00000
     12      41.6569      0.00000

 k-point    17 :       0.3333    0.1667    0.0000
  band No.  band energies     occupation 
      1       5.4264      2.00000
      2       7.6053      2.00000
      3       9.0947      2.00000
      4      10.2588      2.00000
      5      12.1959      2.00000
      6      12.8699      2.00000
      7      27.1695      0.00000
      8      30.9603      0.00000
      9      32.5580      0.00000
     10      34.3395      0.00000
     11      39.5916      0.00000
     12      40.3417      0.00000

 k-point    18 :       0.0000    0.3333    0.1667
  band No.  band energies     occupation 
      1       5.4264      2.00000
      2       7.6053      2.00000
      3       9.0947      2.00000
      4      10.2589      2.00000
      5      12.1959      2.00000
      6      12.8699      2.00000
      7      27.1695      0.00000
      8      30.9603      0.00000
      9      32.5580      0.00000
     10      34.3395      0.00000
     11      39.5916      0.00000
     12      40.3417      0.00000

 k-point    19 :       0.1667    0.0000    0.3333
  band No.  band energies     occupation 
      1       5.4264      2.00000
      2       7.6053      2.00000
      3       9.0947      2.00000
      4      10.2589      2.00000
      5      12.1959      2.00000
      6      12.8699      2.00000
      7      27.1695      0.00000
      8      30.9603      0.00000
      9      32.5580      0.00000
     10      34.3395      0.00000
     11      39.5916      0.00000
     12      40.3417      0.00000

 k-point    20 :       0.1667    0.1667   -0.1667
  band No.  band energies     occupation 
      1       5.4264      2.00000
      2       7.6053      2.00000
      3       9.0947      2.00000
      4      10.2589      2.00000
      5      12.1959      2.00000
      6      12.8699      2.00000
      7      27.1694      0.00000
      8      30.9603      0.00000
      9      32.5581      0.00000
     10      34.3395      0.00000
     11      39.5914      0.00000
     12      40.3419      0.00000

 k-point    21 :       0.3333    0.1667    0.3333
  band No.  band energies     occupation 
      1       5.4264      2.00000
      2       7.6053      2.00000
      3       9.0947      2.00000
      4      10.2589      2.00000
      5      12.1959      2.00000
      6      12.8699      2.00000
      7      27.1693      0.00000
      8      30.9603      0.00000
      9      32.5581      0.00000
     10      34.3395      0.00000
     11      39.5916      0.00000
     12      40.3418      0.00000

 k-point    22 :       0.1667    0.3333    0.0000
  band No.  band energies     occupation 
      1       5.4264      2.00000
      2       7.6053      2.00000
      3       9.0947      2.00000
      4      10.2589      2.00000
      5      12.1959      2.00000
      6      12.8699      2.00000
      7      27.1695      0.00000
      8      30.9603      0.00000
      9      32.5580      0.00000
     10      34.3395      0.00000
     11      39.5916      0.00000
     12      40.3417      0.00000

 k-point    23 :       0.1667   -0.1667   -0.1667
  band No.  band energies     occupation 
      1       5.4264      2.00000
      2       7.6053      2.00000
      3       9.0947      2.00000
      4      10.2589      2.00000
      5      12.1959      2.00000
      6      12.8699      2.00000
      7      27.1694      0.00000
      8      30.9603      0.00000
      9      32.5581      0.00000
     10      34.3395      0.00000
     11      39.5914      0.00000
     12      40.3419      0.00000

 k-point    24 :       0.3333    0.3333    0.1667
  band No.  band energies     occupation 
      1       5.4264      2.00000
      2       7.6053      2.00000
      3       9.0947      2.00000
      4      10.2589      2.00000
      5      12.1959      2.00000
      6      12.8699      2.00000
      7      27.1693      0.00000
      8      30.9603      0.00000
      9      32.5581      0.00000
     10      34.3395      0.00000
     11      39.5916      0.00000
     12      40.3418      0.00000

 k-point    25 :       0.0000    0.1667    0.3333
  band No.  band energies     occupation 
      1       5.4264      2.00000
      2       7.6053      2.00000
      3       9.0947      2.00000
      4      10.2589      2.00000
      5      12.1959      2.00000
      6      12.8699      2.00000
      7      27.1695      0.00000
      8      30.9603      0.00000
      9      32.5580      0.00000
     10      34.3395      0.00000
     11      39.5916      0.00000
     12      40.3417      0.00000

 k-point    26 :      -0.1667    0.1667   -0.1667
  band No.  band energies     occupation 
      1       5.4264      2.00000
      2       7.6053      2.00000
      3       9.0947      2.00000
      4      10.2589      2.00000
      5      12.1959      2.00000
      6      12.8699      2.00000
      7      27.1695      0.00000
      8      30.9603      0.00000
      9      32.5581      0.00000
     10      34.3395      0.00000
     11      39.5914      0.00000
     12      40.3419      0.00000

 k-point    27 :       0.1667    0.3333    0.3333
  band No.  band energies     occupation 
      1       5.4264      2.00000
      2       7.6053      2.00000
      3       9.0947      2.00000
      4      10.2589      2.00000
      5      12.1959      2.00000
      6      12.8699      2.00000
      7      27.1693      0.00000
      8      30.9603      0.00000
      9      32.5582      0.00000
     10      34.3395      0.00000
     11      39.5916      0.00000
     12      40.3418      0.00000

 k-point    28 :       0.3333    0.0000    0.1667
  band No.  band energies     occupation 
      1       5.4264      2.00000
[...]
      1       6.8281      2.00000
      2       7.2138      2.00000
      3       8.3592      2.00000
      4      11.5868      2.00000
      5      12.2409      2.00000
      6      15.7745      0.00000
      7      24.9487      0.00000
      8      27.2639      0.00000
      9      30.0982      0.00000
     10      36.4836      0.00000
     11      37.0044      0.00000
     12      43.6804      0.00000

 k-point    90 :       0.1667   -0.1667   -0.3333
  band No.  band energies     occupation 
      1       6.8281      2.00000
      2       7.2138      2.00000
      3       8.3592      2.00000
      4      11.5868      2.00000
      5      12.2409      2.00000
      6      15.7745      0.00000
      7      24.9487      0.00000
      8      27.2639      0.00000
      9      30.0982      0.00000
     10      36.4836      0.00000
     11      37.0044      0.00000
     12      43.6804      0.00000

 k-point    91 :       0.3333    0.5000    0.1667
  band No.  band energies     occupation 
      1       6.8281      2.00000
      2       7.2139      2.00000
      3       8.3592      2.00000
      4      11.5868      2.00000
      5      12.2409      2.00000
      6      15.7744      0.00000
      7      24.9487      0.00000
      8      27.2638      0.00000
      9      30.0983      0.00000
     10      36.4836      0.00000
     11      37.0045      0.00000
     12      43.6805      0.00000

 k-point    92 :      -0.1667    0.1667   -0.3333
  band No.  band energies     occupation 
      1       6.8281      2.00000
      2       7.2138      2.00000
      3       8.3592      2.00000
      4      11.5868      2.00000
      5      12.2409      2.00000
      6      15.7745      0.00000
      7      24.9487      0.00000
      8      27.2639      0.00000
      9      30.0982      0.00000
     10      36.4836      0.00000
     11      37.0044      0.00000
     12      43.6804      0.00000

 k-point    93 :      -0.3333    0.1667   -0.1667
  band No.  band energies     occupation 
      1       6.8281      2.00000
      2       7.2138      2.00000
      3       8.3592      2.00000
      4      11.5868      2.00000
      5      12.2409      2.00000
      6      15.7745      0.00000
      7      24.9487      0.00000
      8      27.2639      0.00000
      9      30.0982      0.00000
     10      36.4836      0.00000
     11      37.0044      0.00000
     12      43.6804      0.00000

 k-point    94 :       0.1667    0.3333    0.5000
  band No.  band energies     occupation 
      1       6.8281      2.00000
      2       7.2139      2.00000
      3       8.3592      2.00000
      4      11.5868      2.00000
      5      12.2409      2.00000
      6      15.7744      0.00000
      7      24.9487      0.00000
      8      27.2638      0.00000
      9      30.0982      0.00000
     10      36.4836      0.00000
     11      37.0045      0.00000
     12      43.6805      0.00000

 k-point    95 :      -0.3333    0.3333    0.1667
  band No.  band energies     occupation 
      1       7.2085      2.00000
      2       7.2408      2.00000
      3       8.6867      2.00000
      4      10.9453      2.00000
      5      13.3232      2.00000
      6      19.7907      0.00000
      7      20.0241      0.00000
      8      26.8097      0.00000
      9      28.4264      0.00000
     10      35.0360      0.00000
     11      39.7870      0.00000
     12      44.6800      0.00000

 k-point    96 :       0.1667   -0.3333    0.3333
  band No.  band energies     occupation 
      1       7.2085      2.00000
      2       7.2408      2.00000
      3       8.6867      2.00000
      4      10.9453      2.00000
      5      13.3232      2.00000
      6      19.7907      0.00000
      7      20.0241      0.00000
      8      26.8097      0.00000
      9      28.4264      0.00000
     10      35.0360      0.00000
     11      39.7870      0.00000
     12      44.6800      0.00000

 k-point    97 :       0.3333    0.1667   -0.3333
  band No.  band energies     occupation 
      1       7.2085      2.00000
      2       7.2408      2.00000
      3       8.6867      2.00000
      4      10.9453      2.00000
      5      13.3232      2.00000
      6      19.7907      0.00000
      7      20.0241      0.00000
      8      26.8097      0.00000
      9      28.4264      0.00000
     10      35.0360      0.00000
     11      39.7870      0.00000
     12      44.6800      0.00000

 k-point    98 :      -0.3333    0.3333    0.5000
  band No.  band energies     occupation 
      1       7.2086      2.00000
      2       7.2408      2.00000
      3       8.6866      2.00000
      4      10.9453      2.00000
      5      13.3232      2.00000
      6      19.7905      0.00000
      7      20.0241      0.00000
      8      26.8098      0.00000
      9      28.4265      0.00000
     10      35.0361      0.00000
     11      39.7869      0.00000
     12      44.6801      0.00000

 k-point    99 :       0.1667    0.5000   -0.1667
  band No.  band energies     occupation 
      1       7.2086      2.00000
      2       7.2408      2.00000
      3       8.6866      2.00000
      4      10.9452      2.00000
      5      13.3232      2.00000
      6      19.7907      0.00000
      7      20.0242      0.00000
      8      26.8098      0.00000
      9      28.4264      0.00000
     10      35.0359      0.00000
     11      39.7869      0.00000
     12      44.6799      0.00000

 k-point   100 :       0.3333   -0.1667   -0.3333
  band No.  band energies     occupation 
      1       7.2085      2.00000
      2       7.2408      2.00000
      3       8.6867      2.00000
      4      10.9453      2.00000
      5      13.3232      2.00000
      6      19.7907      0.00000
      7      20.0241      0.00000
      8      26.8097      0.00000
      9      28.4264      0.00000
     10      35.0360      0.00000
     11      39.7870      0.00000
     12      44.6800      0.00000

 k-point   101 :       0.5000   -0.3333    0.3333
  band No.  band energies     occupation 
      1       7.2086      2.00000
      2       7.2408      2.00000
      3       8.6866      2.00000
      4      10.9453      2.00000
      5      13.3232      2.00000
      6      19.7905      0.00000
      7      20.0241      0.00000
      8      26.8098      0.00000
      9      28.4265      0.00000
     10      35.0361      0.00000
     11      39.7869      0.00000
     12      44.6801      0.00000

 k-point   102 :      -0.1667    0.1667    0.5000
  band No.  band energies     occupation 
      1       7.2086      2.00000
      2       7.2408      2.00000
      3       8.6866      2.00000
      4      10.9452      2.00000
      5      13.3232      2.00000
      6      19.7907      0.00000
      7      20.0242      0.00000
      8      26.8098      0.00000
      9      28.4264      0.00000
     10      35.0359      0.00000
     11      39.7869      0.00000
     12      44.6799      0.00000

 k-point   103 :      -0.3333    0.3333   -0.1667
  band No.  band energies     occupation 
      1       7.2085      2.00000
      2       7.2408      2.00000
      3       8.6867      2.00000
      4      10.9453      2.00000
      5      13.3232      2.00000
      6      19.7907      0.00000
      7      20.0241      0.00000
      8      26.8097      0.00000
      9      28.4264      0.00000
     10      35.0360      0.00000
     11      39.7870      0.00000
     12      44.6800      0.00000

 k-point   104 :       0.3333    0.5000   -0.3333
  band No.  band energies     occupation 
      1       7.2086      2.00000
      2       7.2408      2.00000
      3       8.6866      2.00000
      4      10.9453      2.00000
      5      13.3232      2.00000
      6      19.7905      0.00000
      7      20.0241      0.00000
      8      26.8098      0.00000
      9      28.4265      0.00000
     10      35.0361      0.00000
     11      39.7869      0.00000
     12      44.6801      0.00000

 k-point   105 :       0.5000   -0.1667    0.1667
  band No.  band energies     occupation 
      1       7.2086      2.00000
      2       7.2408      2.00000
      3       8.6866      2.00000
      4      10.9452      2.00000
      5      13.3232      2.00000
      6      19.7906      0.00000
      7      20.0242      0.00000
      8      26.8098      0.00000
      9      28.4264      0.00000
     10      35.0359      0.00000
     11      39.7869      0.00000
     12      44.6799      0.00000

 k-point   106 :      -0.1667   -0.3333    0.3333
  band No.  band energies     occupation 
      1       7.2085      2.00000
      2       7.2408      2.00000
      3       8.6867      2.00000
      4      10.9453      2.00000
      5      13.3232      2.00000
      6      19.7907      0.00000
      7      20.0241      0.00000
      8      26.8097      0.00000
      9      28.4264      0.00000
     10      35.0360      0.00000
     11      39.7870      0.00000
     12      44.6800      0.00000

 k-point   107 :      -0.3333    0.5000    0.1667
  band No.  band energies     occupation 
      1       6.2401      2.00000
      2       6.7753      2.00000
      3       9.8965      2.00000
      4      11.8132      2.00000
      5      14.1002      0.00000
      6      19.9912      0.00000
      7      21.7354      0.00000
      8      24.1086      0.00000
      9      26.4414      0.00000
     10      38.2399      0.00000
     11      39.4705      0.00000
     12      40.6448      0.00000

 k-point   108 :       0.1667   -0.3333    0.5000
  band No.  band energies     occupation 
      1       6.2401      2.00000
      2       6.7753      2.00000
      3       9.8965      2.00000
      4      11.8132      2.00000
      5      14.1002      0.00000
      6      19.9912      0.00000
      7      21.7354      0.00000
      8      24.1087      0.00000
      9      26.4414      0.00000
     10      38.2399      0.00000
     11      39.4705      0.00000
     12      40.6448      0.00000

 k-point   109 :       0.5000    0.1667   -0.3333
  band No.  band energies     occupation 
      1       6.2401      2.00000
      2       6.7753      2.00000
      3       9.8965      2.00000
      4      11.8132      2.00000
      5      14.1002      0.00000
      6      19.9912      0.00000
      7      21.7354      0.00000
      8      24.1087      0.00000
      9      26.4414      0.00000
     10      38.2399      0.00000
     11      39.4705      0.00000
     12      40.6447      0.00000

 k-point   110 :       0.5000    0.3333   -0.1667
  band No.  band energies     occupation 
      1       6.2401      2.00000
      2       6.7753      2.00000
      3       9.8965      2.00000
      4      11.8132      2.00000
      5      14.1002      0.00000
      6      19.9912      0.00000
      7      21.7354      0.00000
      8      24.1087      0.00000
      9      26.4414      0.00000
     10      38.2399      0.00000
     11      39.4705      0.00000
     12      40.6447      0.00000

 k-point   111 :      -0.3333    0.1667    0.5000
  band No.  band energies     occupation 
      1       6.2401      2.00000
      2       6.7753      2.00000
      3       9.8965      2.00000
      4      11.8132      2.00000
      5      14.1002      0.00000
      6      19.9912      0.00000
      7      21.7354      0.00000
      8      24.1087      0.00000
      9      26.4414      0.00000
     10      38.2399      0.00000
     11      39.4705      0.00000
     12      40.6448      0.00000

 k-point   112 :       0.1667    0.5000   -0.3333
  band No.  band energies     occupation 
      1       6.2401      2.00000
      2       6.7753      2.00000
      3       9.8965      2.00000
      4      11.8132      2.00000
      5      14.1002      0.00000
      6      19.9912      0.00000
      7      21.7354      0.00000
      8      24.1087      0.00000
      9      26.4414      0.00000
     10      38.2399      0.00000
     11      39.4705      0.00000
     12      40.6447      0.00000


--------------------------------------------------------------------------------------------------------


 soft charge-density along one line, spin component            1
         0         1         2         3         4         5         6         7         8         9
 total charge-density along one line
 
 pseudopotential strength for first ion, spin component:            1
 -1.706   0.000  -0.016   0.000   0.009  -1.942   0.000  -0.015
  0.000  -1.706   0.000  -0.018  -0.000   0.000  -1.942   0.000
 -0.016   0.000  -1.722   0.000  -0.006  -0.015   0.000  -1.957
  0.000  -0.018   0.000  -1.719   0.000   0.000  -0.018   0.000
  0.009  -0.000  -0.006   0.000  -1.728   0.009  -0.000  -0.005
 -1.942   0.000  -0.015   0.000   0.009  -2.158   0.000  -0.015
  0.000  -1.942   0.000  -0.018  -0.000   0.000  -2.158   0.000
 -0.015   0.000  -1.957   0.000  -0.005  -0.015   0.000  -2.173
  0.000  -0.018   0.000  -1.954   0.000   0.000  -0.017   0.000
  0.009  -0.000  -0.005   0.000  -1.964   0.009  -0.000  -0.005
 -0.000  -0.000  -0.000  -0.000  -0.000  -0.000  -0.000  -0.000
 -0.000  -0.000  -0.000  -0.000  -0.000  -0.000  -0.000  -0.000
 -0.000  -0.000  -0.000  -0.000  -0.000  -0.000  -0.000  -0.000
 -0.000   0.000  -0.000  -0.000   0.000  -0.000   0.000  -0.000
  0.000  -0.000   0.000  -0.000  -0.000   0.000  -0.000   0.000
 -0.000  -0.000  -0.000  -0.000  -0.000  -0.000  -0.000  -0.000
 -0.000   0.000  -0.000  -0.000   0.000  -0.000   0.000  -0.000
  0.000  -0.000   0.000  -0.000  -0.000   0.000  -0.000   0.000
 total augmentation occupancy for first ion, spin component:            1
  5.901   0.000  -0.317   0.000   0.183  -4.529  -0.000   0.023  -0.000  -0.013   0.000   0.000  -0.000  -0.000   0.000   0.000
  0.000   5.901  -0.000  -0.366  -0.000  -0.000  -4.529   0.000   0.026   0.000   0.000  -0.000  -0.000   0.000  -0.000   0.000
 -0.317  -0.000   5.578  -0.000  -0.112   0.023   0.000  -4.505   0.000   0.008   0.000  -0.000  -0.000  -0.000   0.000   0.000
  0.000  -0.366  -0.000   5.642   0.000  -0.000   0.026   0.000  -4.510  -0.000   0.000  -0.000   0.000   0.000  -0.000  -0.000
  0.183  -0.000  -0.112   0.000   5.448  -0.013   0.000   0.008  -0.000  -4.496   0.000  -0.000   0.000   0.000  -0.000   0.000
 -4.529  -0.000   0.023  -0.000  -0.013   4.941   0.000   0.207   0.000  -0.119  -0.000  -0.000   0.000   0.000  -0.000  -0.000
 -0.000  -4.529   0.000   0.026   0.000   0.000   4.941   0.000   0.239  -0.000  -0.000   0.000   0.000  -0.000   0.000  -0.000
  0.023   0.000  -4.505   0.000   0.008   0.207   0.000   5.152   0.000   0.073  -0.000   0.000   0.000   0.000   0.000  -0.000
 -0.000   0.026   0.000  -4.510  -0.000   0.000   0.239   0.000   5.110   0.000  -0.000   0.000  -0.000  -0.000   0.000   0.000
 -0.013   0.000   0.008  -0.000  -4.496  -0.119  -0.000   0.073   0.000   5.237  -0.000   0.000   0.000  -0.000   0.000  -0.000
  0.000   0.000   0.000   0.000   0.000  -0.000  -0.000  -0.000  -0.000  -0.000   3.240  -0.841   0.000   0.000  -0.000  -0.000
  0.000  -0.000  -0.000  -0.000  -0.000  -0.000   0.000   0.000   0.000   0.000  -0.841   0.242   0.000  -0.000   0.000   0.000
 -0.000  -0.000  -0.000   0.000   0.000   0.000   0.000   0.000  -0.000   0.000   0.000   0.000   0.397  -0.000  -0.000  -0.024
 -0.000   0.000  -0.000   0.000   0.000   0.000  -0.000   0.000  -0.000  -0.000   0.000  -0.000  -0.000   0.397  -0.000   0.000
  0.000  -0.000   0.000  -0.000  -0.000  -0.000   0.000   0.000   0.000   0.000  -0.000   0.000  -0.000  -0.000   0.397  -0.000
  0.000   0.000   0.000  -0.000   0.000  -0.000  -0.000  -0.000   0.000  -0.000  -0.000   0.000  -0.024   0.000  -0.000   0.002
  0.000  -0.000   0.000  -0.000   0.000  -0.000   0.000  -0.000   0.000  -0.000  -0.000   0.000  -0.000  -0.024   0.000   0.000
 -0.000   0.000  -0.000   0.000   0.000   0.000  -0.000  -0.000  -0.000  -0.000   0.000  -0.000  -0.000   0.000  -0.024   0.000


------------------------ aborting loop because EDIFF is reached ----------------------------------------





 total charge

# of ion       s       p       d       tot
------------------------------------------
    1        0.709   0.770   8.141   9.619
 
    CHARGE:  cpu time    0.0075: real time    0.0075
    FORLOC:  cpu time    0.0001: real time    0.0001
    FORNL :  cpu time    0.0184: real time    0.0184
    FORCOR:  cpu time    0.0066: real time    0.0066
    FORHAR:  cpu time    0.0008: real time    0.0008
    MIXING:  cpu time    0.0003: real time    0.0003
    OFIELD:  cpu time    0.0000: real time    0.0000

 VOLUME and BASIS-vectors are now :
 -----------------------------------------------------------------------------
  energy-cutoff  :      420.00
  volume of cell :       13.56
      direct lattice vectors                 reciprocal lattice vectors
     2.317988000  0.000004000  1.338304000     0.431409275 -0.152527060 -0.000000682
     0.772668000  2.185417000  1.338304000    -0.000000296  0.457579205 -0.000000855
     0.000006000  0.000005000  2.676588000    -0.215706101 -0.152527212  0.373610753

  length of vectors
     2.676588494  2.676587547  2.676588000     0.457578918  0.457579205  0.457579137


 FORCES acting on ions
    electron-ion (+dipol)            ewald-force                    non-local-force                 convergence-correction
 -----------------------------------------------------------------------------------------------
   -.213E-05 0.891E-05 -.106E-05   -.259E-14 0.118E-15 -.102E-15   -.672E-05 -.862E-05 -.413E-05   0.700E-05 -.697E-05 0.404E-05
 -----------------------------------------------------------------------------------------------
   -.213E-05 0.891E-05 -.106E-05   -.259E-14 0.118E-15 -.102E-15   -.672E-05 -.862E-05 -.413E-05   0.700E-05 -.697E-05 0.404E-05
 
 
 POSITION                                       TOTAL-FORCE (eV/Angst)
 -----------------------------------------------------------------------------------
      0.00000      0.00000      0.00000        -0.000002     -0.000007     -0.000001
 -----------------------------------------------------------------------------------
    total drift:                               -0.000002     -0.000007     -0.000001


--------------------------------------------------------------------------------------------------------



  FREE ENERGIE OF THE ION-ELECTRON SYSTEM (eV)
  ---------------------------------------------------
  free  energy   TOTEN  =        -5.24955782 eV

  energy  without entropy=       -5.24784331  energy(sigma->0) =       -5.24870057
 


--------------------------------------------------------------------------------------------------------


    POTLOK:  cpu time    0.0069: real time    0.0069


--------------------------------------------------------------------------------------------------------


     LOOP+:  cpu time    4.7262: real time    4.7546
    4ORBIT:  cpu time    0.0000: real time    0.0000



 total charge

# of ion       s       p       d       tot
------------------------------------------
    1        0.709   0.770   8.141   9.619
 

 total amount of memory used by VASP MPI-rank0    31948. kBytes
=======================================================================

   base      :      30000. kBytes
   nonl-proj :       1226. kBytes
   fftplans  :         80. kBytes
   grid      :        111. kBytes
   one-center:         15. kBytes
   wavefun   :        516. kBytes
 
  
  
 General timing and accounting informations for this job:
 ========================================================
  
                  Total CPU time used (sec):        5.806
                            User time (sec):        5.569
                          System time (sec):        0.236
                         Elapsed time (sec):       10.951
  
                   Maximum memory used (kb):       53268.
                   Average memory used (kb):          N/A
  
                          Minor page faults:         6545
                          Major page faults:          448
                 Voluntary context switches:         5606
