<?xml version="1.0" encoding="ISO-8859-1"?>
<modeling>
 <generator>
  <i name="program" type="string">vasp </i>
  <i name="version" type="string">6.2.0  </i>
  <i name="subversion" type="string">18Jan21 (build Feb  1 2022 01:28:57) complex                          parallel </i>
  <i name="platform" type="string">LinuxPGI </i>
  <i name="date" type="string">2022 05 18 </i>
  <i name="time" type="string">19:39:09 </i>
 </generator>
 <incar>
  <i type="string" name="PREC">Normal</i>
  <i type="string" name="ALGO">38</i>
  <i type="int" name="ISPIN">     1</i>
  <i type="int" name="NELM">    60</i>
  <i type="int" name="NELMIN">     4</i>
  <i type="int" name="IBRION">     2</i>
  <i name="EDIFF">      0.00010000</i>
  <i name="EDIFFG">     -0.03000000</i>
  <i type="int" name="NSW">     0</i>
  <i type="int" name="ISIF">     0</i>
  <i type="int" name="ISYM">     0</i>
  <i name="SYMPREC">      0.00001000</i>
  <i name="ENCUT">    420.00000000</i>
  <i type="logical" name="LREAL"> F  </i>
  <i type="int" name="ISMEAR">     0</i>
  <i name="SIGMA">      0.05000000</i>
  <i type="logical" name="LWAVE"> F  </i>
  <i type="logical" name="LVTOT"> F  </i>
  <i type="int" name="LORBIT">    11</i>
  <i type="logical" name="LASPH"> F  </i>
  <i type="string" name="GGA">RP</i>
 </incar>
 <primitive_cell>
  <structure name="primitive_cell" >
   <crystal>
    <varray name="basis" >
     <v>       2.31798800       0.00000400       1.33830400 </v>
     <v>       0.77266800       2.18541700       1.33830400 </v>
     <v>       0.00000600       0.00000500       2.67658800 </v>
    </varray>
    <i name="volume">     13.55894405 </i>
    <varray name="rec_basis" >
     <v>       0.43140928      -0.15252706      -0.00000068 </v>
     <v>      -0.00000030       0.45757920      -0.00000085 </v>
     <v>      -0.21570610      -0.15252721       0.37361075 </v>
    </varray>
   </crystal>
   <varray name="positions" >
    <v>       0.00000000       0.00000000       0.00000000 </v>
   </varray>
  </structure>
  <varray name="primitive_index" >
   <v type="int" >        1 </v>
  </varray>
 </primitive_cell>
 <kpoints>
  <generation param="Gamma">
   <v type="int" name="divisions">       6        6        6 </v>
   <v name="usershift">      0.00000000       0.00000000       0.00000000 </v>
   <v name="genvec1">      0.16666667      -0.00000000       0.00000000 </v>
   <v name="genvec2">      0.00000000       0.16666667       0.00000000 </v>
   <v name="genvec3">     -0.00000000      -0.00000000       0.16666667 </v>
   <v name="shift">      0.00000000       0.00000000       0.00000000 </v>
  </generation>
  <varray name="kpointlist" >
   <v>       0.00000000       0.00000000       0.00000000 </v>
   <v>       0.16666667       0.00000000       0.00000000 </v>
   <v>       0.00000000       0.16666667       0.00000000 </v>
   <v>       0.00000000       0.00000000       0.16666667 </v>
   <v>       0.16666667       0.16666667       0.16666667 </v>
   <v>       0.33333333       0.00000000       0.00000000 </v>
   <v>       0.00000000       0.33333333       0.00000000 </v>
   <v>       0.00000000       0.00000000       0.33333333 </v>
   <v>       0.33333333       0.33333333       0.33333333 </v>
   <v>       0.50000000       0.00000000       0.00000000 </v>
   <v>       0.00000000       0.50000000       0.00000000 </v>
   <v>       0.00000000       0.00000000       0.50000000 </v>
   <v>       0.50000000       0.50000000       0.50000000 </v>
   <v>       0.16666667       0.16666667       0.00000000 </v>
   <v>       0.00000000       0.16666667       0.16666667 </v>
   <v>       0.16666667       0.00000000       0.16666667 </v>
   <v>       0.33333333       0.16666667       0.00000000 </v>
   <v>       0.00000000       0.33333333       0.16666667 </v>
   <v>       0.16666667       0.00000000       0.33333333 </v>
   <v>       0.16666667       0.16666667      -0.16666667 </v>
   <v>       0.33333333       0.16666667       0.33333333 </v>
   <v>       0.16666667       0.33333333       0.00000000 </v>
   <v>       0.16666667      -0.16666667      -0.16666667 </v>
   <v>       0.33333333       0.33333333       0.16666667 </v>
   <v>       0.00000000       0.16666667       0.33333333 </v>
   <v>      -0.16666667       0.16666667      -0.16666667 </v>
   <v>       0.16666667       0.33333333       0.33333333 </v>
   <v>       0.33333333       0.00000000       0.16666667 </v>
   <v>       0.50000000       0.16666667       0.00000000 </v>
   <v>       0.00000000       0.50000000       0.16666667 </v>
   <v>       0.16666667       0.00000000       0.50000000 </v>
   <v>       0.16666667       0.16666667      -0.33333333 </v>
   <v>       0.50000000       0.33333333       0.50000000 </v>
   <v>       0.16666667       0.50000000       0.00000000 </v>
   <v>       0.33333333      -0.16666667      -0.16666667 </v>
   <v>       0.50000000       0.50000000       0.33333333 </v>
   <v>       0.00000000       0.16666667       0.50000000 </v>
   <v>      -0.16666667       0.33333333      -0.16666667 </v>
   <v>       0.33333333       0.50000000       0.50000000 </v>
   <v>       0.50000000       0.00000000       0.16666667 </v>
   <v>      -0.33333333       0.16666667       0.00000000 </v>
   <v>       0.00000000      -0.33333333       0.16666667 </v>
   <v>       0.16666667       0.00000000      -0.33333333 </v>
   <v>       0.16666667       0.16666667       0.50000000 </v>
   <v>      -0.33333333       0.50000000      -0.33333333 </v>
   <v>       0.16666667      -0.33333333       0.00000000 </v>
   <v>       0.50000000      -0.16666667      -0.16666667 </v>
   <v>      -0.33333333      -0.33333333       0.50000000 </v>
   <v>       0.00000000       0.16666667      -0.33333333 </v>
   <v>      -0.16666667       0.50000000      -0.16666667 </v>
   <v>       0.50000000      -0.33333333      -0.33333333 </v>
   <v>      -0.33333333       0.00000000       0.16666667 </v>
   <v>      -0.16666667       0.16666667       0.00000000 </v>
   <v>       0.00000000      -0.16666667       0.16666667 </v>
   <v>       0.16666667       0.00000000      -0.16666667 </v>
   <v>       0.16666667       0.16666667       0.33333333 </v>
   <v>      -0.16666667      -0.33333333      -0.16666667 </v>
   <v>      -0.33333333      -0.16666667      -0.16666667 </v>
   <v>       0.33333333       0.33333333       0.00000000 </v>
   <v>       0.00000000       0.33333333       0.33333333 </v>
   <v>       0.33333333       0.00000000       0.33333333 </v>
   <v>       0.50000000       0.33333333       0.00000000 </v>
   <v>       0.00000000       0.50000000       0.33333333 </v>
   <v>       0.33333333       0.00000000       0.50000000 </v>
   <v>       0.33333333       0.33333333      -0.16666667 </v>
   <v>       0.50000000       0.16666667       0.50000000 </v>
   <v>       0.33333333       0.50000000       0.00000000 </v>
   <v>       0.16666667      -0.33333333      -0.33333333 </v>
   <v>       0.50000000       0.50000000       0.16666667 </v>
   <v>       0.00000000       0.33333333       0.50000000 </v>
   <v>      -0.33333333       0.16666667      -0.33333333 </v>
   <v>       0.16666667       0.50000000       0.50000000 </v>
   <v>       0.50000000       0.00000000       0.33333333 </v>
   <v>      -0.33333333       0.33333333       0.00000000 </v>
   <v>       0.00000000      -0.33333333       0.33333333 </v>
   <v>       0.33333333       0.00000000      -0.33333333 </v>
   <v>       0.33333333       0.33333333      -0.33333333 </v>
   <v>      -0.33333333       0.33333333      -0.33333333 </v>
   <v>       0.33333333      -0.33333333      -0.33333333 </v>
   <v>       0.50000000       0.50000000       0.00000000 </v>
   <v>       0.00000000       0.50000000       0.50000000 </v>
   <v>       0.50000000       0.00000000       0.50000000 </v>
   <v>       0.50000000       0.33333333       0.16666667 </v>
   <v>       0.16666667       0.50000000       0.33333333 </v>
   <v>       0.33333333       0.16666667       0.50000000 </v>
   <v>       0.33333333       0.16666667      -0.16666667 </v>
   <v>       0.50000000       0.16666667       0.33333333 </v>
   <v>       0.16666667      -0.33333333      -0.16666667 </v>
   <v>       0.16666667       0.33333333      -0.16666667 </v>
   <v>       0.16666667      -0.16666667      -0.33333333 </v>
   <v>       0.33333333       0.50000000       0.16666667 </v>
   <v>      -0.16666667       0.16666667      -0.33333333 </v>
   <v>      -0.33333333       0.16666667      -0.16666667 </v>
   <v>       0.16666667       0.33333333       0.50000000 </v>
   <v>      -0.33333333       0.33333333       0.16666667 </v>
   <v>       0.16666667      -0.33333333       0.33333333 </v>
   <v>       0.33333333       0.16666667      -0.33333333 </v>
   <v>      -0.33333333       0.33333333       0.50000000 </v>
   <v>       0.16666667       0.50000000      -0.16666667 </v>
   <v>       0.33333333      -0.16666667      -0.33333333 </v>
   <v>       0.50000000      -0.33333333       0.33333333 </v>
   <v>      -0.16666667       0.16666667       0.50000000 </v>
   <v>      -0.33333333       0.33333333      -0.16666667 </v>
   <v>       0.33333333       0.50000000      -0.33333333 </v>
   <v>       0.50000000      -0.16666667       0.16666667 </v>
   <v>      -0.16666667      -0.33333333       0.33333333 </v>
   <v>      -0.33333333       0.50000000       0.16666667 </v>
   <v>       0.16666667      -0.33333333       0.50000000 </v>
   <v>       0.50000000       0.16666667      -0.33333333 </v>
   <v>       0.50000000       0.33333333      -0.16666667 </v>
   <v>      -0.33333333       0.16666667       0.50000000 </v>
   <v>       0.16666667       0.50000000      -0.33333333 </v>
  </varray>
  <varray name="weights" >
   <v>       0.00462963 </v>
   <v>       0.00925926 </v>
   <v>       0.00925926 </v>
   <v>       0.00925926 </v>
   <v>       0.00925926 </v>
   <v>       0.00925926 </v>
   <v>       0.00925926 </v>
   <v>       0.00925926 </v>
   <v>       0.00925926 </v>
   <v>       0.00462963 </v>
   <v>       0.00462963 </v>
   <v>       0.00462963 </v>
   <v>       0.00462963 </v>
   <v>       0.00925926 </v>
   <v>       0.00925926 </v>
   <v>       0.00925926 </v>
   <v>       0.00925926 </v>
   <v>       0.00925926 </v>
   <v>       0.00925926 </v>
   <v>       0.00925926 </v>
   <v>       0.00925926 </v>
   <v>       0.00925926 </v>
   <v>       0.00925926 </v>
   <v>       0.00925926 </v>
   <v>       0.00925926 </v>
   <v>       0.00925926 </v>
   <v>       0.00925926 </v>
   <v>       0.00925926 </v>
   <v>       0.00925926 </v>
   <v>       0.00925926 </v>
   <v>       0.00925926 </v>
   <v>       0.00925926 </v>
   <v>       0.00925926 </v>
   <v>       0.00925926 </v>
   <v>       0.00925926 </v>
   <v>       0.00925926 </v>
   <v>       0.00925926 </v>
   <v>       0.00925926 </v>
   <v>       0.00925926 </v>
   <v>       0.00925926 </v>
   <v>       0.00925926 </v>
   <v>       0.00925926 </v>
   <v>       0.00925926 </v>
   <v>       0.00925926 </v>
   <v>       0.00925926 </v>
   <v>       0.00925926 </v>
   <v>       0.00925926 </v>
   <v>       0.00925926 </v>
   <v>       0.00925926 </v>
   <v>       0.00925926 </v>
   <v>       0.00925926 </v>
   <v>       0.00925926 </v>
   <v>       0.00925926 </v>
   <v>       0.00925926 </v>
   <v>       0.00925926 </v>
   <v>       0.00925926 </v>
   <v>       0.00925926 </v>
   <v>       0.00925926 </v>
   <v>       0.00925926 </v>
   <v>       0.00925926 </v>
   <v>       0.00925926 </v>
   <v>       0.00925926 </v>
   <v>       0.00925926 </v>
   <v>       0.00925926 </v>
   <v>       0.00925926 </v>
   <v>       0.00925926 </v>
   <v>       0.00925926 </v>
   <v>       0.00925926 </v>
   <v>       0.00925926 </v>
   <v>       0.00925926 </v>
   <v>       0.00925926 </v>
   <v>       0.00925926 </v>
   <v>       0.00925926 </v>
   <v>       0.00925926 </v>
   <v>       0.00925926 </v>
   <v>       0.00925926 </v>
   <v>       0.00925926 </v>
   <v>       0.00925926 </v>
   <v>       0.00925926 </v>
   <v>       0.00462963 </v>
   <v>       0.00462963 </v>
   <v>       0.00462963 </v>
   <v>       0.00925926 </v>
   <v>       0.00925926 </v>
   <v>       0.00925926 </v>
   <v>       0.00925926 </v>
   <v>       0.00925926 </v>
   <v>       0.00925926 </v>
   <v>       0.00925926 </v>
   <v>       0.00925926 </v>
   <v>       0.00925926 </v>
   <v>       0.00925926 </v>
   <v>       0.00925926 </v>
   <v>       0.00925926 </v>
   <v>       0.00925926 </v>
   <v>       0.00925926 </v>
   <v>       0.00925926 </v>
   <v>       0.00925926 </v>
   <v>       0.00925926 </v>
   <v>       0.00925926 </v>
   <v>       0.00925926 </v>
   <v>       0.00925926 </v>
   <v>       0.00925926 </v>
   <v>       0.00925926 </v>
   <v>       0.00925926 </v>
   <v>       0.00925926 </v>
   <v>       0.00925926 </v>
   <v>       0.00925926 </v>
   <v>       0.00925926 </v>
   <v>       0.00925926 </v>
   <v>       0.00925926 </v>
   <v>       0.00925926 </v>
  </varray>
 </kpoints>
 <parameters>
  <separator name="general" >
   <i type="string" name="SYSTEM">unknown system</i>
   <i type="logical" name="LCOMPAT"> F  </i>
  </separator>
  <separator name="electronic" >
   <i type="string" name="PREC">normal</i>
   <i name="ENMAX">    420.00000000</i>
   <i name="ENAUG">    358.96600000</i>
   <i name="EDIFF">      0.00010000</i>
   <i type="int" name="IALGO">    38</i>
   <i type="int" name="IWAVPR">    10</i>
   <i type="int" name="NBANDS">    12</i>
   <i type="int" name="NBANDSLOW">    -1</i>
   <i type="int" name="NBANDSHIGH">    -1</i>
   <i name="NELECT">     10.00000000</i>
   <i type="int" name="TURBO">     0</i>
   <i type="int" name="IRESTART">     0</i>
   <i type="int" name="NREBOOT">     0</i>
   <i type="int" name="NMIN">     0</i>
   <i name="EREF">      0.00000000</i>
   <separator name="electronic smearing" >
    <i type="int" name="ISMEAR">     0</i>
    <i name="SIGMA">      0.05000000</i>
    <i name="KSPACING">      0.50000000</i>
    <i type="logical" name="KGAMMA"> T  </i>
    <i type="logical" name="KBLOWUP"> T  </i>
   </separator>
   <separator name="electronic projectors" >
    <i type="logical" name="LREAL"> F  </i>
    <v name="ROPT">      0.00000000</v>
    <i type="int" name="LMAXPAW">  -100</i>
    <i type="int" name="LMAXMIX">     2</i>
    <i type="logical" name="NLSPLINE"> F  </i>
   </separator>
   <separator name="electronic startup" >
    <i type="int" name="ISTART">     0</i>
    <i type="int" name="ICHARG">     2</i>
    <i type="int" name="INIWAV">     1</i>
   </separator>
   <separator name="electronic spin" >
    <i type="int" name="ISPIN">     1</i>
    <i type="logical" name="LNONCOLLINEAR"> F  </i>
    <v name="MAGMOM">      1.00000000</v>
    <i name="NUPDOWN">     -1.00000000</i>
    <i type="logical" name="LSORBIT"> F  </i>
    <v name="SAXIS">      0.00000000      0.00000000      1.00000000</v>
    <i type="logical" name="LSPIRAL"> F  </i>
    <v name="QSPIRAL">      0.00000000      0.00000000      0.00000000</v>
    <i type="logical" name="LZEROZ"> F  </i>
   </separator>
   <separator name="electronic exchange-correlation" >
    <i type="logical" name="LASPH"> F  </i>
    <i type="logical" name="LMETAGGA"> F  </i>
   </separator>
   <separator name="electronic convergence" >
    <i type="int" name="NELM">    60</i>
    <i type="int" name="NELMDL">    -5</i>
    <i type="int" name="NELMIN">     4</i>
    <i name="ENINI">    420.00000000</i>
    <separator name="electronic convergence detail" >
     <i type="logical" name="LDIAG"> T  </i>
     <i type="logical" name="LSUBROT"> F  </i>
     <i name="WEIMIN">      0.00000000</i>
     <i name="EBREAK">      0.00000208</i>
     <i name="DEPER">      0.30000000</i>
     <i type="int" name="NRMM">     4</i>
     <i name="TIME">      0.40000000</i>
    </separator>
   </separator>
   <separator name="electronic mixer" >
    <i name="AMIX">      0.40000000</i>
    <i name="BMIX">      1.00000000</i>
    <i name="AMIN">      0.10000000</i>
    <i name="AMIX_MAG">      1.60000000</i>
    <i name="BMIX_MAG">      1.00000000</i>
    <separator name="electronic mixer details" >
     <i type="int" name="IMIX">     4</i>
     <i type="logical" name="MIXFIRST"> F  </i>
     <i type="int" name="MAXMIX">   -45</i>
     <i name="WC">    100.00000000</i>
     <i type="int" name="INIMIX">     1</i>
     <i type="int" name="MIXPRE">     1</i>
     <i type="int" name="MREMOVE">     5</i>
    </separator>
   </separator>
   <separator name="electronic dipolcorrection" >
    <i type="logical" name="LDIPOL"> F  </i>
    <i type="logical" name="LMONO"> F  </i>
    <i type="int" name="IDIPOL">     0</i>
    <i name="EPSILON">      1.00000000</i>
    <v name="DIPOL">   -100.00000000   -100.00000000   -100.00000000</v>
    <i name="EFIELD">      0.00000000</i>
   </separator>
  </separator>
  <separator name="grids" >
   <i type="int" name="NGX">    14</i>
   <i type="int" name="NGY">    14</i>
   <i type="int" name="NGZ">    14</i>
   <i type="int" name="NGXF">    28</i>
   <i type="int" name="NGYF">    28</i>
   <i type="int" name="NGZF">    28</i>
   <i type="logical" name="ADDGRID"> F  </i>
  </separator>
  <separator name="ionic" >
   <i type="int" name="NSW">     0</i>
   <i type="int" name="IBRION">    -1</i>
   <i type="int" name="MDALGO">     0</i>
   <i type="int" name="ISIF">     0</i>
   <i name="PSTRESS">      0.00000000</i>
   <i name="EDIFFG">     -0.03000000</i>
   <i type="int" name="NFREE">     1</i>
   <i name="POTIM">      0.50000000</i>
   <i name="SMASS">     -3.00000000</i>
   <i name="SCALEE">      1.00000000</i>
  </separator>
  <separator name="ionic md" >
   <i name="TEBEG">      0.00010000</i>
   <i name="TEEND">      0.00010000</i>
   <i type="int" name="NBLOCK">     1</i>
   <i type="int" name="KBLOCK">     1</i>
   <i type="int" name="NPACO">   256</i>
   <i name="APACO">     16.00000000</i>
  </separator>
  <separator name="symmetry" >
   <i type="int" name="ISYM">     0</i>
   <i name="SYMPREC">      0.00001000</i>
  </separator>
  <separator name="dos" >
   <i type="int" name="LORBIT">    11</i>
   <v name="RWIGS">     -1.00000000</v>
   <i type="int" name="NEDOS">   301</i>
   <i name="EMIN">     10.00000000</i>
   <i name="EMAX">    -10.00000000</i>
   <i name="EFERMI">      0.00000000</i>
  </separator>
  <separator name="writing" >
   <i type="int" name="NWRITE">     2</i>
   <i type="logical" name="LWAVE"> F  </i>
   <i type="logical" name="LDOWNSAMPLE"> F  </i>
   <i type="logical" name="LCHARG"> T  </i>
   <i type="logical" name="LPARD"> F  </i>
   <i type="logical" name="LVTOT"> F  </i>
   <i type="logical" name="LVHAR"> F  </i>
   <i type="logical" name="LELF"> F  </i>
   <i type="logical" name="LOPTICS"> F  </i>
   <v name="STM">      0.00000000      0.00000000      0.00000000      0.00000000      0.00000000      0.00000000      0.00000000</v>
  </separator>
  <separator name="performance" >
   <i type="int" name="NPAR">     4</i>
   <i type="int" name="NSIM">     4</i>
   <i type="int" name="NBLK">    -1</i>
   <i type="logical" name="LPLANE"> T  </i>
   <i type="logical" name="LSCALAPACK"> T  </i>
   <i type="logical" name="LSCAAWARE"> F  </i>
   <i type="logical" name="LSCALU"> F  </i>
   <i type="logical" name="LASYNC"> F  </i>
   <i type="logical" name="LORBITALREAL"> F  </i>
  </separator>
  <separator name="miscellaneous" >
   <i type="int" name="IDIOT">     3</i>
   <i type="int" name="PHON_NSTRUCT">    -1</i>
   <i type="logical" name="LMUSIC"> F  </i>
   <v name="POMASS">    195.08000000</v>
   <v name="DARWINR">      0.00000000</v>
   <v name="DARWINV">      1.00000000</v>
   <i type="logical" name="LCORR"> T  </i>
  </separator>
  <i type="logical" name="GGA_COMPAT"> T  </i>
  <i type="logical" name="LBERRY"> F  </i>
  <i type="int" name="ICORELEVEL">     0</i>
  <i type="logical" name="LDAU"> F  </i>
  <i type="int" name="I_CONSTRAINED_M">     0</i>
  <separator name="electronic exchange-correlation" >
   <i type="string" name="GGA">RP</i>
   <i type="int" name="VOSKOWN">     0</i>
   <i type="logical" name="LHFCALC"> F  </i>
   <i type="string" name="PRECFOCK"></i>
   <i type="logical" name="LSYMGRAD"> F  </i>
   <i type="logical" name="LHFONE"> F  </i>
   <i type="logical" name="LRHFCALC"> F  </i>
   <i type="logical" name="LTHOMAS"> F  </i>
   <i type="logical" name="LMODELHF"> F  </i>
   <i type="logical" name="LFOCKACE"> F  </i>
   <i name="ENCUT4O">     -1.00000000</i>
   <i type="int" name="EXXOEP">     0</i>
   <i type="int" name="FOURORBIT">     0</i>
   <i name="AEXX">      0.00000000</i>
   <i name="HFALPHA">      0.00000000</i>
   <i name="MCALPHA">      0.00000000</i>
   <i name="ALDAX">      1.00000000</i>
   <i name="AGGAX">      1.00000000</i>
   <i name="ALDAC">      1.00000000</i>
   <i name="AGGAC">      1.00000000</i>
   <i type="int" name="NKREDX">     1</i>
   <i type="int" name="NKREDY">     1</i>
   <i type="int" name="NKREDZ">     1</i>
   <i type="logical" name="SHIFTRED"> F  </i>
   <i type="logical" name="ODDONLY"> F  </i>
   <i type="logical" name="EVENONLY"> F  </i>
   <i type="int" name="LMAXFOCK">     0</i>
   <i type="int" name="NMAXFOCKAE">     0</i>
   <i type="logical" name="LFOCKAEDFT"> F  </i>
   <i name="HFSCREEN">      0.00000000</i>
   <i name="HFSCREENC">      0.00000000</i>
   <i type="int" name="NBANDSGWLOW">     0</i>
  </separator>
  <separator name="vdW DFT" >
   <i type="logical" name="LUSE_VDW"> F  </i>
   <i name="Zab_VDW">     -0.84910000</i>
   <i name="PARAM1">      0.12340000</i>
   <i name="PARAM2">      1.00000000</i>
   <i name="PARAM3">      0.00000000</i>
  </separator>
  <separator name="model GW" >
   <i type="int" name="MODEL_GW">     0</i>
   <i name="MODEL_EPS0">      8.13536643</i>
   <i name="MODEL_ALPHA">      1.00000000</i>
  </separator>
  <separator name="linear response parameters" >
   <i type="logical" name="LEPSILON"> F  </i>
   <i type="logical" name="LRPA"> F  </i>
   <i type="logical" name="LNABLA"> F  </i>
   <i type="logical" name="LVEL"> F  </i>
   <i type="int" name="KINTER">     0</i>
   <i name="CSHIFT">      0.10000000</i>
   <i name="OMEGAMAX">     -1.00000000</i>
   <i name="DEG_THRESHOLD">      0.00200000</i>
   <i name="RTIME">     -0.10000000</i>
   <i name="WPLASMAI">      0.00000000</i>
   <v name="DFIELD">      0.00000000      0.00000000      0.00000000</v>
   <v name="WPLASMA">      0.00000000      0.00000000      0.00000000      0.00000000      0.00000000      0.00000000      0.00000000      0.00000000      0.00000000</v>
  </separator>
  <separator name="orbital magnetization" >
   <i type="logical" name="NUCIND"> F  </i>
   <v name="MAGPOS">      0.00000000      0.00000000      0.00000000</v>
   <i type="logical" name="LNICSALL"> T  </i>
   <i type="logical" name="ORBITALMAG"> F  </i>
   <i type="logical" name="LMAGBLOCH"> F  </i>
   <i type="logical" name="LCHIMAG"> F  </i>
   <i type="logical" name="LGAUGE"> T  </i>
   <i type="int" name="MAGATOM">     0</i>
   <v name="MAGDIPOL">      0.00000000      0.00000000      0.00000000</v>
   <v name="AVECCONST">      0.00000000      0.00000000      0.00000000</v>
  </separator>
  <separator name="response functions" >
   <i type="logical" name="LFINITE_TEMPERATURE"> F  </i>
   <i type="logical" name="LADDER"> F  </i>
   <i type="logical" name="LRPAFORCE"> F  </i>
   <i type="logical" name="LFXC"> F  </i>
   <i type="logical" name="LHARTREE"> T  </i>
   <i type="int" name="IBSE">     0</i>
   <v type="int" name="KPOINT">    -1     0     0     0</v>
   <i type="logical" name="LTCTC"> F  </i>
   <i type="logical" name="LTCTE"> F  </i>
   <i type="logical" name="LTETE"> F  </i>
   <i type="logical" name="LTRIPLET"> F  </i>
   <i type="logical" name="LFXCEPS"> F  </i>
   <i type="logical" name="LFXHEG"> F  </i>
   <i type="int" name="NATURALO">     2</i>
   <i type="logical" name="LHOLEGF"> F  </i>
   <i type="logical" name="L2ORDER"> F  </i>
   <i type="logical" name="LDMP1"> F  </i>
   <i type="logical" name="LMP2LT"> F  </i>
   <i type="logical" name="LSMP2LT"> F  </i>
   <i type="logical" name="LGWLF"> F  </i>
   <i name="ENCUTGW">     -2.00000000</i>
   <i name="ENCUTGWSOFT">     -2.00000000</i>
   <i name="ENCUTLF">     -1.00000000</i>
   <i type="logical" name="LESF_SPLINES"> F  </i>
   <i type="int" name="LMAXMP2">    -1</i>
   <i name="SCISSOR">      0.00000000</i>
   <i type="int" name="NOMEGA">     0</i>
   <i type="int" name="NOMEGAR">     0</i>
   <i type="int" name="NBANDSGW">    -1</i>
   <i type="int" name="NBANDSO">    -1</i>
   <i type="int" name="NBANDSV">    -1</i>
   <i type="int" name="NELM">    60</i>
   <i type="int" name="NELMHF">     1</i>
   <i type="int" name="DIM">     3</i>
   <i type="int" name="IESPILON">     4</i>
   <i type="int" name="ANTIRES">     0</i>
   <i name="OMEGAMAX">    -30.00000000</i>
   <i name="OMEGAMIN">    -30.00000000</i>
   <i name="OMEGATL">   -200.00000000</i>
   <i type="int" name="OMEGAGRID">     0</i>
   <i name="CSHIFT">     -0.10000000</i>
   <i type="logical" name="LSELFENERGY"> F  </i>
   <i type="logical" name="LSPECTRAL"> F  </i>
   <i type="logical" name="LSPECTRALGW"> F  </i>
   <i type="logical" name="LSINGLES"> F  </i>
   <i type="logical" name="LFERMIGW"> F  </i>
   <i type="logical" name="ODDONLYGW"> F  </i>
   <i type="logical" name="EVENONLYGW"> F  </i>
   <i type="int" name="NKREDLFX">     1</i>
   <i type="int" name="NKREDLFY">     1</i>
   <i type="int" name="NKREDLFZ">     1</i>
   <i type="int" name="MAXMEM">  2800</i>
   <i type="int" name="TELESCOPE">     0</i>
   <i type="int" name="NTAUPAR">    -1</i>
   <i type="int" name="NOMEGAPAR">    -1</i>
   <i name="DAMP_NEWTON">      0.80000001</i>
   <i name="LAMBDA">      1.00000000</i>
  </separator>
  <separator name="External order field" >
   <i name="OFIELD_KAPPA">      0.00000000</i>
   <v name="OFIELD_K">      0.00000000      0.00000000      0.00000000</v>
   <i name="OFIELD_Q6_NEAR">      0.00000000</i>
   <i name="OFIELD_Q6_FAR">      0.00000000</i>
   <i name="OFIELD_A">      0.00000000</i>
  </separator>
 </parameters>
 <atominfo>
  <atoms>       1 </atoms>
  <types>       1 </types>
  <array name="atoms" >
   <dimension dim="1">ion</dimension>
   <field type="string">element</field>
   <field type="int">atomtype</field>
   <set>
    <rc><c>Pt</c><c>   1</c></rc>
   </set>
  </array>
  <array name="atomtypes" >
   <dimension dim="1">type</dimension>
   <field type="int">atomspertype</field>
   <field type="string">element</field>
   <field>mass</field>
   <field>valence</field>
   <field type="string">pseudopotential</field>
   <set>
    <rc><c>   1</c><c>Pt</c><c>    195.08000000</c><c>     10.00000000</c><c>  PAW_PBE Pt 04Feb2005                  </c></rc>
   </set>
  </array>
 </atominfo>
 <structure name="initialpos" >
  <crystal>
   <varray name="basis" >
    <v>       2.31798800       0.00000400       1.33830400 </v>
    <v>       0.77266800       2.18541700       1.33830400 </v>
    <v>       0.00000600       0.00000500       2.67658800 </v>
   </varray>
   <i name="volume">     13.55894405 </i>
   <varray name="rec_basis" >
    <v>       0.43140928      -0.15252706      -0.00000068 </v>
    <v>      -0.00000030       0.45757920      -0.00000085 </v>
    <v>      -0.21570610      -0.15252721       0.37361075 </v>
   </varray>
  </crystal>
  <varray name="positions" >
   <v>       0.00000000       0.00000000       0.00000000 </v>
  </varray>
 </structure>
 <calculation>
  <scstep>
   <time name="dav">    0.44    0.44</time>
   <time name="total">    0.46    0.46</time>
   <energy>
    <i name="alphaZ">     70.10742624 </i>
    <i name="ewald">   -872.08148489 </i>
    <i name="hartreedc">    -62.47307127 </i>
    <i name="XCdc">      4.06612516 </i>
    <i name="pawpsdc">    696.70595042 </i>
    <i name="pawaedc">   -667.45827301 </i>
    <i name="eentropy">     -0.00045091 </i>
    <i name="bandstr">    138.61496115 </i>
    <i name="atom">    728.31920932 </i>
    <i name="e_fr_energy">     35.80039221 </i>
    <i name="e_wo_entrp">     35.80084312 </i>
    <i name="e_0_energy">     35.80061766 </i>
   </energy>
  </scstep>
  <scstep>
   <time name="dav">    0.46    0.46</time>
   <time name="total">    0.46    0.46</time>
   <energy>
    <i name="e_fr_energy">     -5.05333635 </i>
    <i name="e_wo_entrp">     -5.05207592 </i>
    <i name="e_0_energy">     -5.05270614 </i>
   </energy>
  </scstep>
  <scstep>
   <time name="dav">    0.48    0.48</time>
   <time name="total">    0.48    0.48</time>
   <energy>
    <i name="e_fr_energy">     -5.57732531 </i>
    <i name="e_wo_entrp">     -5.57585649 </i>
    <i name="e_0_energy">     -5.57659090 </i>
   </energy>
  </scstep>
  <scstep>
   <time name="dav">    0.47    0.48</time>
   <time name="total">    0.47    0.48</time>
   <energy>
    <i name="e_fr_energy">     -5.57920499 </i>
    <i name="e_wo_entrp">     -5.57773615 </i>
    <i name="e_0_energy">     -5.57847057 </i>
   </energy>
  </scstep>
  <scstep>
   <time name="dav">    0.49    0.50</time>
   <time name="total">    0.50    0.51</time>
   <energy>
    <i name="e_fr_energy">     -5.57921793 </i>
    <i name="e_wo_entrp">     -5.57774909 </i>
    <i name="e_0_energy">     -5.57848351 </i>
   </energy>
  </scstep>
  <scstep>
   <time name="dav">    0.46    0.46</time>
   <time name="total">    0.47    0.48</time>
   <energy>
    <i name="e_fr_energy">     -5.30749832 </i>
    <i name="e_wo_entrp">     -5.30576202 </i>
    <i name="e_0_energy">     -5.30663017 </i>
   </energy>
  </scstep>
  <scstep>
   <time name="dav">    0.48    0.48</time>
   <time name="total">    0.50    0.50</time>
   <energy>
    <i name="e_fr_energy">     -5.25354731 </i>
    <i name="e_wo_entrp">     -5.25180630 </i>
    <i name="e_0_energy">     -5.25267680 </i>
   </energy>
  </scstep>
  <scstep>
   <time name="dav">    0.45    0.45</time>
   <time name="total">    0.47    0.47</time>
   <energy>
    <i name="e_fr_energy">     -5.24974949 </i>
    <i name="e_wo_entrp">     -5.24803774 </i>
    <i name="e_0_energy">     -5.24889361 </i>
   </energy>
  </scstep>
  <scstep>
   <time name="dav">    0.47    0.47</time>
   <time name="total">    0.48    0.49</time>
   <energy>
    <i name="e_fr_energy">     -5.24955169 </i>
    <i name="e_wo_entrp">     -5.24783517 </i>
    <i name="e_0_energy">     -5.24869343 </i>
   </energy>
  </scstep>
  <scstep>
   <time name="dav">    0.35    0.35</time>
   <time name="total">    0.36    0.36</time>
   <energy>
    <i name="alphaZ">     70.10742624 </i>
    <i name="ewald">   -872.08148489 </i>
    <i name="hartreedc">    -52.64865965 </i>
    <i name="XCdc">      3.77584556 </i>
    <i name="pawpsdc">   1050.14749884 </i>
    <i name="pawaedc">  -1024.84401819 </i>
    <i name="eentropy">     -0.00171451 </i>
    <i name="bandstr">     91.97633945 </i>
    <i name="atom">    728.31920932 </i>
    <i name="e_fr_energy">     -5.24955782 </i>
    <i name="e_wo_entrp">     -5.24784331 </i>
    <i name="e_0_energy">     -5.24870057 </i>
   </energy>
  </scstep>
  <structure>
   <crystal>
    <varray name="basis" >
     <v>       2.31798800       0.00000400       1.33830400 </v>
     <v>       0.77266800       2.18541700       1.33830400 </v>
     <v>       0.00000600       0.00000500       2.67658800 </v>
    </varray>
    <i name="volume">     13.55894405 </i>
    <varray name="rec_basis" >
     <v>       0.43140928      -0.15252706      -0.00000068 </v>
     <v>      -0.00000030       0.45757920      -0.00000085 </v>
     <v>      -0.21570610      -0.15252721       0.37361075 </v>
    </varray>
   </crystal>
   <varray name="positions" >
    <v>       0.00000000       0.00000000       0.00000000 </v>
   </varray>
  </structure>
  <varray name="forces" >
   <v>      -0.00000185      -0.00000669      -0.00000115 </v>
  </varray>
  <energy>
   <i name="e_fr_energy">     -5.24955782 </i>
   <i name="e_wo_entrp">     -5.24784331 </i>
   <i name="e_0_energy">     -5.24870057 </i>
  </energy>
  <time name="totalsc">    4.73    4.75</time>
  <eigenvalues>
   <array>
    <dimension dim="1">band</dimension>
    <dimension dim="2">kpoint</dimension>
    <dimension dim="3">spin</dimension>
    <field>eigene</field>
    <field>occ</field>
    <set>
     <set comment="spin 1">
      <set comment="kpoint 1">
       <r>    2.0724    1.0000 </r>
       <r>    8.9956    1.0000 </r>
       <r>    8.9957    1.0000 </r>
       <r>    8.9957    1.0000 </r>
       <r>   11.5558    1.0000 </r>
       <r>   11.5558    1.0000 </r>
       <r>   27.7538    0.0000 </r>
       <r>   33.3488    0.0000 </r>
       <r>   33.3491    0.0000 </r>
       <r>   33.3491    0.0000 </r>
       <r>   39.0985    0.0000 </r>
       <r>   45.8006    0.0000 </r>
      </set>
      <set comment="kpoint 2">
       <r>    3.2280    1.0000 </r>
       <r>    8.5619    1.0000 </r>
       <r>    9.3762    1.0000 </r>
       <r>    9.3763    1.0000 </r>
       <r>   11.4152    1.0000 </r>
       <r>   11.4152    1.0000 </r>
       <r>   29.3909    0.0000 </r>
       <r>   29.7973    0.0000 </r>
       <r>   35.2901    0.0000 </r>
       <r>   35.2903    0.0000 </r>
       <r>   39.9987    0.0000 </r>
       <r>   42.9313    0.0000 </r>
      </set>
      <set comment="kpoint 3">
       <r>    3.2280    1.0000 </r>
       <r>    8.5619    1.0000 </r>
       <r>    9.3762    1.0000 </r>
       <r>    9.3763    1.0000 </r>
       <r>   11.4152    1.0000 </r>
       <r>   11.4152    1.0000 </r>
       <r>   29.3909    0.0000 </r>
       <r>   29.7973    0.0000 </r>
       <r>   35.2901    0.0000 </r>
       <r>   35.2903    0.0000 </r>
       <r>   39.9987    0.0000 </r>
       <r>   42.9313    0.0000 </r>
      </set>
      <set comment="kpoint 4">
       <r>    3.2280    1.0000 </r>
       <r>    8.5619    1.0000 </r>
       <r>    9.3762    1.0000 </r>
       <r>    9.3763    1.0000 </r>
       <r>   11.4152    1.0000 </r>
       <r>   11.4152    1.0000 </r>
       <r>   29.3909    0.0000 </r>
       <r>   29.7973    0.0000 </r>
       <r>   35.2901    0.0000 </r>
       <r>   35.2903    0.0000 </r>
       <r>   39.9987    0.0000 </r>
       <r>   42.9313    0.0000 </r>
      </set>
      <set comment="kpoint 5">
       <r>    3.2279    1.0000 </r>
       <r>    8.5619    1.0000 </r>
       <r>    9.3763    1.0000 </r>
       <r>    9.3763    1.0000 </r>
       <r>   11.4153    1.0000 </r>
       <r>   11.4153    1.0000 </r>
       <r>   29.3909    0.0000 </r>
       <r>   29.7971    0.0000 </r>
       <r>   35.2903    0.0000 </r>
       <r>   35.2903    0.0000 </r>
       <r>   39.9985    0.0000 </r>
       <r>   42.9314    0.0000 </r>
      </set>
      <set comment="kpoint 6">
       <r>    4.9092    1.0000 </r>
       <r>    9.2141    1.0000 </r>
       <r>    9.2143    1.0000 </r>
       <r>    9.6148    1.0000 </r>
       <r>   12.4925    1.0000 </r>
       <r>   12.4926    1.0000 </r>
       <r>   24.6022    0.0000 </r>
       <r>   28.9269    0.0000 </r>
       <r>   36.0615    0.0000 </r>
       <r>   36.0617    0.0000 </r>
       <r>   39.4552    0.0000 </r>
       <r>   40.2953    0.0000 </r>
      </set>
      <set comment="kpoint 7">
       <r>    4.9092    1.0000 </r>
       <r>    9.2141    1.0000 </r>
       <r>    9.2143    1.0000 </r>
       <r>    9.6148    1.0000 </r>
       <r>   12.4925    1.0000 </r>
       <r>   12.4926    1.0000 </r>
       <r>   24.6022    0.0000 </r>
       <r>   28.9269    0.0000 </r>
       <r>   36.0615    0.0000 </r>
       <r>   36.0617    0.0000 </r>
       <r>   39.4552    0.0000 </r>
       <r>   40.2953    0.0000 </r>
      </set>
      <set comment="kpoint 8">
       <r>    4.9092    1.0000 </r>
       <r>    9.2141    1.0000 </r>
       <r>    9.2143    1.0000 </r>
       <r>    9.6148    1.0000 </r>
       <r>   12.4925    1.0000 </r>
       <r>   12.4926    1.0000 </r>
       <r>   24.6022    0.0000 </r>
       <r>   28.9269    0.0000 </r>
       <r>   36.0615    0.0000 </r>
       <r>   36.0617    0.0000 </r>
       <r>   39.4552    0.0000 </r>
       <r>   40.2953    0.0000 </r>
      </set>
      <set comment="kpoint 9">
       <r>    4.9091    1.0000 </r>
       <r>    9.2142    1.0000 </r>
       <r>    9.2142    1.0000 </r>
       <r>    9.6147    1.0000 </r>
       <r>   12.4926    1.0000 </r>
       <r>   12.4926    1.0000 </r>
       <r>   24.6020    0.0000 </r>
       <r>   28.9268    0.0000 </r>
       <r>   36.0617    0.0000 </r>
       <r>   36.0617    0.0000 </r>
       <r>   39.4552    0.0000 </r>
       <r>   40.2953    0.0000 </r>
      </set>
      <set comment="kpoint 10">
       <r>    4.9984    1.0000 </r>
       <r>    8.9057    1.0000 </r>
       <r>    8.9058    1.0000 </r>
       <r>   12.6191    1.0000 </r>
       <r>   13.5495    0.5810 </r>
       <r>   13.5496    0.5802 </r>
       <r>   20.2484    0.0000 </r>
       <r>   27.3666    0.0000 </r>
       <r>   33.1944    0.0000 </r>
       <r>   33.1946    0.0000 </r>
       <r>   43.8518    0.0000 </r>
       <r>   43.8518    0.0000 </r>
      </set>
      <set comment="kpoint 11">
       <r>    4.9984    1.0000 </r>
       <r>    8.9057    1.0000 </r>
       <r>    8.9058    1.0000 </r>
       <r>   12.6191    1.0000 </r>
       <r>   13.5495    0.5810 </r>
       <r>   13.5496    0.5802 </r>
       <r>   20.2484    0.0000 </r>
       <r>   27.3666    0.0000 </r>
       <r>   33.1944    0.0000 </r>
       <r>   33.1946    0.0000 </r>
       <r>   43.8518    0.0000 </r>
       <r>   43.8518    0.0000 </r>
      </set>
      <set comment="kpoint 12">
       <r>    4.9984    1.0000 </r>
       <r>    8.9057    1.0000 </r>
       <r>    8.9058    1.0000 </r>
       <r>   12.6191    1.0000 </r>
       <r>   13.5495    0.5810 </r>
       <r>   13.5496    0.5802 </r>
       <r>   20.2484    0.0000 </r>
       <r>   27.3666    0.0000 </r>
       <r>   33.1944    0.0000 </r>
       <r>   33.1946    0.0000 </r>
       <r>   43.8518    0.0000 </r>
       <r>   43.8518    0.0000 </r>
      </set>
      <set comment="kpoint 13">
       <r>    4.9984    1.0000 </r>
       <r>    8.9058    1.0000 </r>
       <r>    8.9058    1.0000 </r>
       <r>   12.6190    1.0000 </r>
       <r>   13.5495    0.5809 </r>
       <r>   13.5495    0.5808 </r>
       <r>   20.2482    0.0000 </r>
       <r>   27.3667    0.0000 </r>
       <r>   33.1946    0.0000 </r>
       <r>   33.1947    0.0000 </r>
       <r>   43.8519    0.0000 </r>
       <r>   43.8519    0.0000 </r>
      </set>
      <set comment="kpoint 14">
       <r>    3.6299    1.0000 </r>
       <r>    7.9758    1.0000 </r>
       <r>    9.8838    1.0000 </r>
       <r>    9.8839    1.0000 </r>
       <r>   10.4372    1.0000 </r>
       <r>   11.9961    1.0000 </r>
       <r>   30.3354    0.0000 </r>
       <r>   31.5611    0.0000 </r>
       <r>   33.4533    0.0000 </r>
       <r>   33.4535    0.0000 </r>
       <r>   41.6554    0.0000 </r>
       <r>   41.6559    0.0000 </r>
      </set>
      <set comment="kpoint 15">
       <r>    3.6299    1.0000 </r>
       <r>    7.9758    1.0000 </r>
       <r>    9.8838    1.0000 </r>
       <r>    9.8839    1.0000 </r>
       <r>   10.4372    1.0000 </r>
       <r>   11.9961    1.0000 </r>
       <r>   30.3354    0.0000 </r>
       <r>   31.5611    0.0000 </r>
       <r>   33.4532    0.0000 </r>
       <r>   33.4535    0.0000 </r>
       <r>   41.6553    0.0000 </r>
       <r>   41.6555    0.0000 </r>
      </set>
      <set comment="kpoint 16">
       <r>    3.6299    1.0000 </r>
       <r>    7.9758    1.0000 </r>
       <r>    9.8839    1.0000 </r>
       <r>    9.8839    1.0000 </r>
       <r>   10.4372    1.0000 </r>
       <r>   11.9961    1.0000 </r>
       <r>   30.3354    0.0000 </r>
       <r>   31.5611    0.0000 </r>
       <r>   33.4533    0.0000 </r>
       <r>   33.4535    0.0000 </r>
       <r>   41.6553    0.0000 </r>
       <r>   41.6569    0.0000 </r>
      </set>
      <set comment="kpoint 17">
       <r>    5.4264    1.0000 </r>
       <r>    7.6053    1.0000 </r>
       <r>    9.0947    1.0000 </r>
       <r>   10.2588    1.0000 </r>
       <r>   12.1959    1.0000 </r>
       <r>   12.8699    1.0000 </r>
       <r>   27.1695    0.0000 </r>
       <r>   30.9603    0.0000 </r>
       <r>   32.5580    0.0000 </r>
       <r>   34.3395    0.0000 </r>
       <r>   39.5916    0.0000 </r>
       <r>   40.3417    0.0000 </r>
      </set>
      <set comment="kpoint 18">
       <r>    5.4264    1.0000 </r>
       <r>    7.6053    1.0000 </r>
       <r>    9.0947    1.0000 </r>
       <r>   10.2589    1.0000 </r>
       <r>   12.1959    1.0000 </r>
       <r>   12.8699    1.0000 </r>
       <r>   27.1695    0.0000 </r>
       <r>   30.9603    0.0000 </r>
       <r>   32.5580    0.0000 </r>
       <r>   34.3395    0.0000 </r>
       <r>   39.5916    0.0000 </r>
       <r>   40.3417    0.0000 </r>
      </set>
      <set comment="kpoint 19">
       <r>    5.4264    1.0000 </r>
       <r>    7.6053    1.0000 </r>
       <r>    9.0947    1.0000 </r>
       <r>   10.2589    1.0000 </r>
       <r>   12.1959    1.0000 </r>
       <r>   12.8699    1.0000 </r>
       <r>   27.1695    0.0000 </r>
       <r>   30.9603    0.0000 </r>
       <r>   32.5580    0.0000 </r>
       <r>   34.3395    0.0000 </r>
       <r>   39.5916    0.0000 </r>
       <r>   40.3417    0.0000 </r>
      </set>
      <set comment="kpoint 20">
       <r>    5.4264    1.0000 </r>
       <r>    7.6053    1.0000 </r>
       <r>    9.0947    1.0000 </r>
       <r>   10.2589    1.0000 </r>
       <r>   12.1959    1.0000 </r>
       <r>   12.8699    1.0000 </r>
       <r>   27.1694    0.0000 </r>
       <r>   30.9603    0.0000 </r>
       <r>   32.5581    0.0000 </r>
       <r>   34.3395    0.0000 </r>
       <r>   39.5914    0.0000 </r>
       <r>   40.3419    0.0000 </r>
      </set>
      <set comment="kpoint 21">
       <r>    5.4264    1.0000 </r>
       <r>    7.6053    1.0000 </r>
       <r>    9.0947    1.0000 </r>
       <r>   10.2589    1.0000 </r>
       <r>   12.1959    1.0000 </r>
       <r>   12.8699    1.0000 </r>
       <r>   27.1693    0.0000 </r>
       <r>   30.9603    0.0000 </r>
       <r>   32.5581    0.0000 </r>
       <r>   34.3395    0.0000 </r>
       <r>   39.5916    0.0000 </r>
       <r>   40.3418    0.0000 </r>
      </set>
      <set comment="kpoint 22">
       <r>    5.4264    1.0000 </r>
       <r>    7.6053    1.0000 </r>
       <r>    9.0947    1.0000 </r>
       <r>   10.2589    1.0000 </r>
       <r>   12.1959    1.0000 </r>
       <r>   12.8699    1.0000 </r>
       <r>   27.1695    0.0000 </r>
       <r>   30.9603    0.0000 </r>
       <r>   32.5580    0.0000 </r>
       <r>   34.3395    0.0000 </r>
       <r>   39.5916    0.0000 </r>
       <r>   40.3417    0.0000 </r>
      </set>
      <set comment="kpoint 23">
       <r>    5.4264    1.0000 </r>
       <r>    7.6053    1.0000 </r>
       <r>    9.0947    1.0000 </r>
       <r>   10.2589    1.0000 </r>
       <r>   12.1959    1.0000 </r>
       <r>   12.8699    1.0000 </r>
       <r>   27.1694    0.0000 </r>
       <r>   30.9603    0.0000 </r>
       <r>   32.5581    0.0000 </r>
       <r>   34.3395    0.0000 </r>
       <r>   39.5914    0.0000 </r>
       <r>   40.3419    0.0000 </r>
      </set>
      <set comment="kpoint 24">
       <r>    5.4264    1.0000 </r>
       <r>    7.6053    1.0000 </r>
       <r>    9.0947    1.0000 </r>
       <r>   10.2589    1.0000 </r>
       <r>   12.1959    1.0000 </r>
       <r>   12.8699    1.0000 </r>
       <r>   27.1693    0.0000 </r>
       <r>   30.9603    0.0000 </r>
       <r>   32.5581    0.0000 </r>
       <r>   34.3395    0.0000 </r>
       <r>   39.5916    0.0000 </r>
       <r>   40.3418    0.0000 </r>
      </set>
      <set comment="kpoint 25">
       <r>    5.4264    1.0000 </r>
       <r>    7.6053    1.0000 </r>
       <r>    9.0947    1.0000 </r>
       <r>   10.2589    1.0000 </r>
       <r>   12.1959    1.0000 </r>
       <r>   12.8699    1.0000 </r>
       <r>   27.1695    0.0000 </r>
       <r>   30.9603    0.0000 </r>
       <r>   32.5580    0.0000 </r>
       <r>   34.3395    0.0000 </r>
       <r>   39.5916    0.0000 </r>
       <r>   40.3417    0.0000 </r>
      </set>
      <set comment="kpoint 26">
       <r>    5.4264    1.0000 </r>
       <r>    7.6053    1.0000 </r>
       <r>    9.0947    1.0000 </r>
       <r>   10.2589    1.0000 </r>
       <r>   12.1959    1.0000 </r>
       <r>   12.8699    1.0000 </r>
       <r>   27.1695    0.0000 </r>
       <r>   30.9603    0.0000 </r>
       <r>   32.5581    0.0000 </r>
       <r>   34.3395    0.0000 </r>
       <r>   39.5914    0.0000 </r>
       <r>   40.3419    0.0000 </r>
      </set>
      <set comment="kpoint 27">
       <r>    5.4264    1.0000 </r>
       <r>    7.6053    1.0000 </r>
       <r>    9.0947    1.0000 </r>
       <r>   10.2589    1.0000 </r>
       <r>   12.1959    1.0000 </r>
       <r>   12.8699    1.0000 </r>
       <r>   27.1693    0.0000 </r>
       <r>   30.9603    0.0000 </r>
       <r>   32.5582    0.0000 </r>
       <r>   34.3395    0.0000 </r>
       <r>   39.5916    0.0000 </r>
       <r>   40.3418    0.0000 </r>
      </set>
      <set comment="kpoint 28">
       <r>    5.4264    1.0000 </r>
       <r>    7.6053    1.0000 </r>
       <r>    9.0947    1.0000 </r>
       <r>   10.2589    1.0000 </r>
       <r>   12.1959    1.0000 </r>
       <r>   12.8699    1.0000 </r>
       <r>   27.1695    0.0000 </r>
       <r>   30.9603    0.0000 </r>
       <r>   32.5580    0.0000 </r>
       <r>   34.3395    0.0000 </r>
       <r>   39.5916    0.0000 </r>
       <r>   40.3417    0.0000 </r>
      </set>
      <set comment="kpoint 29">
       <r>    5.8514    1.0000 </r>
       <r>    8.1934    1.0000 </r>
       <r>    9.6990    1.0000 </r>
       <r>    9.8113    1.0000 </r>
       <r>   13.6242    0.0283 </r>
       <r>   16.1680    0.0000 </r>
       <r>   20.6998    0.0000 </r>
       <r>   28.9306    0.0000 </r>
       <r>   31.8151    0.0000 </r>
       <r>   32.3119    0.0000 </r>
       <r>   42.0157    0.0000 </r>
       <r>   43.6624    0.0000 </r>
      </set>
      <set comment="kpoint 30">
       <r>    5.8514    1.0000 </r>
       <r>    8.1934    1.0000 </r>
       <r>    9.6990    1.0000 </r>
       <r>    9.8113    1.0000 </r>
       <r>   13.6242    0.0283 </r>
       <r>   16.1680    0.0000 </r>
       <r>   20.6998    0.0000 </r>
       <r>   28.9306    0.0000 </r>
       <r>   31.8151    0.0000 </r>
       <r>   32.3119    0.0000 </r>
       <r>   42.0157    0.0000 </r>
       <r>   43.6624    0.0000 </r>
      </set>
      <set comment="kpoint 31">
       <r>    5.8514    1.0000 </r>
       <r>    8.1934    1.0000 </r>
       <r>    9.6990    1.0000 </r>
       <r>    9.8113    1.0000 </r>
       <r>   13.6242    0.0283 </r>
       <r>   16.1680    0.0000 </r>
       <r>   20.6998    0.0000 </r>
       <r>   28.9306    0.0000 </r>
       <r>   31.8151    0.0000 </r>
       <r>   32.3119    0.0000 </r>
       <r>   42.0157    0.0000 </r>
       <r>   43.6624    0.0000 </r>
      </set>
      <set comment="kpoint 32">
       <r>    5.8513    1.0000 </r>
       <r>    8.1933    1.0000 </r>
       <r>    9.6990    1.0000 </r>
       <r>    9.8114    1.0000 </r>
       <r>   13.6242    0.0282 </r>
       <r>   16.1680    0.0000 </r>
       <r>   20.6998    0.0000 </r>
       <r>   28.9305    0.0000 </r>
       <r>   31.8152    0.0000 </r>
       <r>   32.3119    0.0000 </r>
       <r>   42.0158    0.0000 </r>
       <r>   43.6624    0.0000 </r>
      </set>
      <set comment="kpoint 33">
       <r>    5.8513    1.0000 </r>
       <r>    8.1933    1.0000 </r>
       <r>    9.6990    1.0000 </r>
       <r>    9.8113    1.0000 </r>
       <r>   13.6241    0.0283 </r>
       <r>   16.1680    0.0000 </r>
       <r>   20.6997    0.0000 </r>
       <r>   28.9306    0.0000 </r>
       <r>   31.8153    0.0000 </r>
       <r>   32.3120    0.0000 </r>
       <r>   42.0158    0.0000 </r>
       <r>   43.6625    0.0000 </r>
      </set>
      <set comment="kpoint 34">
       <r>    5.8514    1.0000 </r>
       <r>    8.1934    1.0000 </r>
       <r>    9.6990    1.0000 </r>
       <r>    9.8113    1.0000 </r>
       <r>   13.6242    0.0283 </r>
       <r>   16.1680    0.0000 </r>
       <r>   20.6998    0.0000 </r>
       <r>   28.9306    0.0000 </r>
       <r>   31.8151    0.0000 </r>
       <r>   32.3119    0.0000 </r>
       <r>   42.0157    0.0000 </r>
       <r>   43.6624    0.0000 </r>
      </set>
      <set comment="kpoint 35">
       <r>    5.8513    1.0000 </r>
       <r>    8.1933    1.0000 </r>
       <r>    9.6990    1.0000 </r>
       <r>    9.8114    1.0000 </r>
       <r>   13.6242    0.0282 </r>
       <r>   16.1680    0.0000 </r>
       <r>   20.6998    0.0000 </r>
       <r>   28.9305    0.0000 </r>
       <r>   31.8152    0.0000 </r>
       <r>   32.3119    0.0000 </r>
       <r>   42.0158    0.0000 </r>
       <r>   43.6624    0.0000 </r>
      </set>
      <set comment="kpoint 36">
       <r>    5.8513    1.0000 </r>
       <r>    8.1933    1.0000 </r>
       <r>    9.6990    1.0000 </r>
       <r>    9.8113    1.0000 </r>
       <r>   13.6241    0.0283 </r>
       <r>   16.1680    0.0000 </r>
       <r>   20.6997    0.0000 </r>
       <r>   28.9306    0.0000 </r>
       <r>   31.8153    0.0000 </r>
       <r>   32.3120    0.0000 </r>
       <r>   42.0158    0.0000 </r>
       <r>   43.6625    0.0000 </r>
      </set>
      <set comment="kpoint 37">
       <r>    5.8514    1.0000 </r>
       <r>    8.1934    1.0000 </r>
       <r>    9.6990    1.0000 </r>
       <r>    9.8113    1.0000 </r>
       <r>   13.6242    0.0283 </r>
       <r>   16.1680    0.0000 </r>
       <r>   20.6998    0.0000 </r>
       <r>   28.9306    0.0000 </r>
       <r>   31.8151    0.0000 </r>
       <r>   32.3119    0.0000 </r>
       <r>   42.0157    0.0000 </r>
       <r>   43.6624    0.0000 </r>
      </set>
      <set comment="kpoint 38">
       <r>    5.8513    1.0000 </r>
       <r>    8.1933    1.0000 </r>
       <r>    9.6990    1.0000 </r>
       <r>    9.8114    1.0000 </r>
       <r>   13.6242    0.0282 </r>
       <r>   16.1680    0.0000 </r>
       <r>   20.6998    0.0000 </r>
       <r>   28.9305    0.0000 </r>
       <r>   31.8152    0.0000 </r>
       <r>   32.3119    0.0000 </r>
       <r>   42.0158    0.0000 </r>
       <r>   43.6624    0.0000 </r>
      </set>
      <set comment="kpoint 39">
       <r>    5.8513    1.0000 </r>
       <r>    8.1933    1.0000 </r>
       <r>    9.6990    1.0000 </r>
       <r>    9.8113    1.0000 </r>
       <r>   13.6241    0.0283 </r>
       <r>   16.1680    0.0000 </r>
       <r>   20.6997    0.0000 </r>
       <r>   28.9306    0.0000 </r>
       <r>   31.8153    0.0000 </r>
       <r>   32.3120    0.0000 </r>
       <r>   42.0158    0.0000 </r>
       <r>   43.6625    0.0000 </r>
      </set>
      <set comment="kpoint 40">
       <r>    5.8514    1.0000 </r>
       <r>    8.1934    1.0000 </r>
       <r>    9.6990    1.0000 </r>
       <r>    9.8113    1.0000 </r>
       <r>   13.6242    0.0283 </r>
       <r>   16.1680    0.0000 </r>
       <r>   20.6998    0.0000 </r>
       <r>   28.9306    0.0000 </r>
       <r>   31.8151    0.0000 </r>
       <r>   32.3119    0.0000 </r>
       <r>   42.0157    0.0000 </r>
       <r>   43.6624    0.0000 </r>
      </set>
      <set comment="kpoint 41">
       <r>    6.0142    1.0000 </r>
       <r>    8.4410    1.0000 </r>
       <r>    9.2784    1.0000 </r>
       <r>    9.7716    1.0000 </r>
       <r>   12.1943    1.0000 </r>
       <r>   15.4805    0.0000 </r>
       <r>   23.0136    0.0000 </r>
       <r>   29.0723    0.0000 </r>
       <r>   30.8467    0.0000 </r>
       <r>   35.4095    0.0000 </r>
       <r>   38.4852    0.0000 </r>
       <r>   43.0794    0.0000 </r>
      </set>
      <set comment="kpoint 42">
       <r>    6.0142    1.0000 </r>
       <r>    8.4410    1.0000 </r>
       <r>    9.2784    1.0000 </r>
       <r>    9.7716    1.0000 </r>
       <r>   12.1943    1.0000 </r>
       <r>   15.4805    0.0000 </r>
       <r>   23.0136    0.0000 </r>
       <r>   29.0723    0.0000 </r>
       <r>   30.8467    0.0000 </r>
       <r>   35.4095    0.0000 </r>
       <r>   38.4852    0.0000 </r>
       <r>   43.0794    0.0000 </r>
      </set>
      <set comment="kpoint 43">
       <r>    6.0142    1.0000 </r>
       <r>    8.4410    1.0000 </r>
       <r>    9.2784    1.0000 </r>
       <r>    9.7716    1.0000 </r>
       <r>   12.1943    1.0000 </r>
       <r>   15.4805    0.0000 </r>
       <r>   23.0136    0.0000 </r>
       <r>   29.0723    0.0000 </r>
       <r>   30.8467    0.0000 </r>
       <r>   35.4095    0.0000 </r>
       <r>   38.4852    0.0000 </r>
       <r>   43.0794    0.0000 </r>
      </set>
      <set comment="kpoint 44">
       <r>    6.0142    1.0000 </r>
       <r>    8.4410    1.0000 </r>
       <r>    9.2785    1.0000 </r>
       <r>    9.7717    1.0000 </r>
       <r>   12.1944    1.0000 </r>
       <r>   15.4804    0.0000 </r>
       <r>   23.0136    0.0000 </r>
       <r>   29.0722    0.0000 </r>
       <r>   30.8467    0.0000 </r>
       <r>   35.4096    0.0000 </r>
       <r>   38.4853    0.0000 </r>
       <r>   43.0794    0.0000 </r>
      </set>
      <set comment="kpoint 45">
       <r>    6.0142    1.0000 </r>
       <r>    8.4410    1.0000 </r>
       <r>    9.2784    1.0000 </r>
       <r>    9.7716    1.0000 </r>
       <r>   12.1944    1.0000 </r>
       <r>   15.4804    0.0000 </r>
       <r>   23.0135    0.0000 </r>
       <r>   29.0723    0.0000 </r>
       <r>   30.8468    0.0000 </r>
       <r>   35.4096    0.0000 </r>
       <r>   38.4852    0.0000 </r>
       <r>   43.0796    0.0000 </r>
      </set>
      <set comment="kpoint 46">
       <r>    6.0142    1.0000 </r>
       <r>    8.4410    1.0000 </r>
       <r>    9.2784    1.0000 </r>
       <r>    9.7716    1.0000 </r>
       <r>   12.1943    1.0000 </r>
       <r>   15.4805    0.0000 </r>
       <r>   23.0136    0.0000 </r>
       <r>   29.0723    0.0000 </r>
       <r>   30.8467    0.0000 </r>
       <r>   35.4095    0.0000 </r>
       <r>   38.4853    0.0000 </r>
       <r>   43.0794    0.0000 </r>
      </set>
      <set comment="kpoint 47">
       <r>    6.0142    1.0000 </r>
       <r>    8.4410    1.0000 </r>
       <r>    9.2785    1.0000 </r>
       <r>    9.7717    1.0000 </r>
       <r>   12.1944    1.0000 </r>
       <r>   15.4804    0.0000 </r>
       <r>   23.0136    0.0000 </r>
       <r>   29.0722    0.0000 </r>
       <r>   30.8467    0.0000 </r>
       <r>   35.4096    0.0000 </r>
       <r>   38.4853    0.0000 </r>
       <r>   43.0794    0.0000 </r>
      </set>
      <set comment="kpoint 48">
       <r>    6.0142    1.0000 </r>
       <r>    8.4410    1.0000 </r>
       <r>    9.2784    1.0000 </r>
       <r>    9.7716    1.0000 </r>
       <r>   12.1944    1.0000 </r>
       <r>   15.4804    0.0000 </r>
       <r>   23.0135    0.0000 </r>
       <r>   29.0723    0.0000 </r>
       <r>   30.8468    0.0000 </r>
       <r>   35.4096    0.0000 </r>
       <r>   38.4852    0.0000 </r>
       <r>   43.0796    0.0000 </r>
      </set>
      <set comment="kpoint 49">
       <r>    6.0142    1.0000 </r>
       <r>    8.4410    1.0000 </r>
       <r>    9.2784    1.0000 </r>
       <r>    9.7716    1.0000 </r>
       <r>   12.1943    1.0000 </r>
       <r>   15.4805    0.0000 </r>
       <r>   23.0136    0.0000 </r>
       <r>   29.0723    0.0000 </r>
       <r>   30.8467    0.0000 </r>
       <r>   35.4095    0.0000 </r>
       <r>   38.4852    0.0000 </r>
       <r>   43.0794    0.0000 </r>
      </set>
      <set comment="kpoint 50">
       <r>    6.0142    1.0000 </r>
       <r>    8.4410    1.0000 </r>
       <r>    9.2785    1.0000 </r>
       <r>    9.7717    1.0000 </r>
       <r>   12.1944    1.0000 </r>
       <r>   15.4804    0.0000 </r>
       <r>   23.0137    0.0000 </r>
       <r>   29.0722    0.0000 </r>
       <r>   30.8467    0.0000 </r>
       <r>   35.4096    0.0000 </r>
       <r>   38.4853    0.0000 </r>
       <r>   43.0794    0.0000 </r>
      </set>
      <set comment="kpoint 51">
       <r>    6.0142    1.0000 </r>
       <r>    8.4410    1.0000 </r>
       <r>    9.2784    1.0000 </r>
       <r>    9.7717    1.0000 </r>
       <r>   12.1944    1.0000 </r>
       <r>   15.4804    0.0000 </r>
       <r>   23.0135    0.0000 </r>
       <r>   29.0723    0.0000 </r>
       <r>   30.8468    0.0000 </r>
       <r>   35.4096    0.0000 </r>
       <r>   38.4852    0.0000 </r>
       <r>   43.0796    0.0000 </r>
      </set>
      <set comment="kpoint 52">
       <r>    6.0142    1.0000 </r>
       <r>    8.4410    1.0000 </r>
       <r>    9.2784    1.0000 </r>
       <r>    9.7716    1.0000 </r>
       <r>   12.1943    1.0000 </r>
       <r>   15.4805    0.0000 </r>
       <r>   23.0136    0.0000 </r>
       <r>   29.0723    0.0000 </r>
       <r>   30.8467    0.0000 </r>
       <r>   35.4095    0.0000 </r>
       <r>   38.4852    0.0000 </r>
       <r>   43.0794    0.0000 </r>
      </set>
      <set comment="kpoint 53">
       <r>    4.8696    1.0000 </r>
       <r>    7.9756    1.0000 </r>
       <r>    9.3341    1.0000 </r>
       <r>   10.1643    1.0000 </r>
       <r>   10.5053    1.0000 </r>
       <r>   12.9522    1.0000 </r>
       <r>   28.1471    0.0000 </r>
       <r>   30.8816    0.0000 </r>
       <r>   33.6894    0.0000 </r>
       <r>   34.0044    0.0000 </r>
       <r>   39.1149    0.0000 </r>
       <r>   43.3509    0.0000 </r>
      </set>
      <set comment="kpoint 54">
       <r>    4.8696    1.0000 </r>
       <r>    7.9756    1.0000 </r>
       <r>    9.3341    1.0000 </r>
       <r>   10.1643    1.0000 </r>
       <r>   10.5053    1.0000 </r>
       <r>   12.9522    1.0000 </r>
       <r>   28.1471    0.0000 </r>
       <r>   30.8816    0.0000 </r>
       <r>   33.6894    0.0000 </r>
       <r>   34.0044    0.0000 </r>
       <r>   39.1149    0.0000 </r>
       <r>   43.3503    0.0000 </r>
      </set>
      <set comment="kpoint 55">
       <r>    4.8696    1.0000 </r>
       <r>    7.9756    1.0000 </r>
       <r>    9.3341    1.0000 </r>
       <r>   10.1643    1.0000 </r>
       <r>   10.5053    1.0000 </r>
       <r>   12.9522    1.0000 </r>
       <r>   28.1471    0.0000 </r>
       <r>   30.8815    0.0000 </r>
       <r>   33.6894    0.0000 </r>
       <r>   34.0044    0.0000 </r>
       <r>   39.1149    0.0000 </r>
       <r>   43.3507    0.0000 </r>
      </set>
      <set comment="kpoint 56">
       <r>    4.8695    1.0000 </r>
       <r>    7.9756    1.0000 </r>
       <r>    9.3340    1.0000 </r>
       <r>   10.1644    1.0000 </r>
       <r>   10.5054    1.0000 </r>
       <r>   12.9522    1.0000 </r>
       <r>   28.1470    0.0000 </r>
       <r>   30.8814    0.0000 </r>
       <r>   33.6894    0.0000 </r>
       <r>   34.0044    0.0000 </r>
       <r>   39.1149    0.0000 </r>
       <r>   43.3524    0.0000 </r>
      </set>
      <set comment="kpoint 57">
       <r>    4.8695    1.0000 </r>
       <r>    7.9756    1.0000 </r>
       <r>    9.3340    1.0000 </r>
       <r>   10.1644    1.0000 </r>
       <r>   10.5054    1.0000 </r>
       <r>   12.9522    1.0000 </r>
       <r>   28.1470    0.0000 </r>
       <r>   30.8814    0.0000 </r>
       <r>   33.6894    0.0000 </r>
       <r>   34.0044    0.0000 </r>
       <r>   39.1149    0.0000 </r>
       <r>   43.3558    0.0000 </r>
      </set>
      <set comment="kpoint 58">
       <r>    4.8695    1.0000 </r>
       <r>    7.9756    1.0000 </r>
       <r>    9.3340    1.0000 </r>
       <r>   10.1644    1.0000 </r>
       <r>   10.5054    1.0000 </r>
       <r>   12.9522    1.0000 </r>
       <r>   28.1470    0.0000 </r>
       <r>   30.8814    0.0000 </r>
       <r>   33.6894    0.0000 </r>
       <r>   34.0044    0.0000 </r>
       <r>   39.1150    0.0000 </r>
       <r>   43.3488    0.0000 </r>
      </set>
      <set comment="kpoint 59">
       <r>    5.6039    1.0000 </r>
       <r>    6.3538    1.0000 </r>
       <r>   10.9803    1.0000 </r>
       <r>   12.2490    1.0000 </r>
       <r>   12.2490    1.0000 </r>
       <r>   12.9687    1.0000 </r>
       <r>   28.7458    0.0000 </r>
       <r>   28.7460    0.0000 </r>
       <r>   29.9399    0.0000 </r>
       <r>   33.7599    0.0000 </r>
       <r>   35.7484    0.0000 </r>
       <r>   43.8093    0.0000 </r>
      </set>
      <set comment="kpoint 60">
       <r>    5.6039    1.0000 </r>
       <r>    6.3538    1.0000 </r>
       <r>   10.9803    1.0000 </r>
       <r>   12.2490    1.0000 </r>
       <r>   12.2490    1.0000 </r>
       <r>   12.9687    1.0000 </r>
       <r>   28.7458    0.0000 </r>
       <r>   28.7460    0.0000 </r>
       <r>   29.9399    0.0000 </r>
       <r>   33.7599    0.0000 </r>
       <r>   35.7484    0.0000 </r>
       <r>   43.8094    0.0000 </r>
      </set>
      <set comment="kpoint 61">
       <r>    5.6039    1.0000 </r>
       <r>    6.3538    1.0000 </r>
       <r>   10.9803    1.0000 </r>
       <r>   12.2490    1.0000 </r>
       <r>   12.2490    1.0000 </r>
       <r>   12.9687    1.0000 </r>
       <r>   28.7458    0.0000 </r>
       <r>   28.7460    0.0000 </r>
       <r>   29.9399    0.0000 </r>
       <r>   33.7599    0.0000 </r>
       <r>   35.7484    0.0000 </r>
       <r>   43.8093    0.0000 </r>
      </set>
      <set comment="kpoint 62">
       <r>    5.8092    1.0000 </r>
       <r>    6.4750    1.0000 </r>
       <r>   10.6534    1.0000 </r>
       <r>   12.0853    1.0000 </r>
       <r>   13.8027    0.0000 </r>
       <r>   16.8573    0.0000 </r>
       <r>   22.5504    0.0000 </r>
       <r>   26.9951    0.0000 </r>
       <r>   27.7927    0.0000 </r>
       <r>   35.0492    0.0000 </r>
       <r>   39.1332    0.0000 </r>
       <r>   42.3337    0.0000 </r>
      </set>
      <set comment="kpoint 63">
       <r>    5.8092    1.0000 </r>
       <r>    6.4750    1.0000 </r>
       <r>   10.6534    1.0000 </r>
       <r>   12.0853    1.0000 </r>
       <r>   13.8027    0.0000 </r>
       <r>   16.8573    0.0000 </r>
       <r>   22.5504    0.0000 </r>
       <r>   26.9951    0.0000 </r>
       <r>   27.7926    0.0000 </r>
       <r>   35.0492    0.0000 </r>
       <r>   39.1332    0.0000 </r>
       <r>   42.3337    0.0000 </r>
      </set>
      <set comment="kpoint 64">
       <r>    5.8092    1.0000 </r>
       <r>    6.4750    1.0000 </r>
       <r>   10.6534    1.0000 </r>
       <r>   12.0853    1.0000 </r>
       <r>   13.8027    0.0000 </r>
       <r>   16.8573    0.0000 </r>
       <r>   22.5504    0.0000 </r>
       <r>   26.9951    0.0000 </r>
       <r>   27.7927    0.0000 </r>
       <r>   35.0492    0.0000 </r>
       <r>   39.1332    0.0000 </r>
       <r>   42.3337    0.0000 </r>
      </set>
      <set comment="kpoint 65">
       <r>    5.8091    1.0000 </r>
       <r>    6.4750    1.0000 </r>
       <r>   10.6534    1.0000 </r>
       <r>   12.0853    1.0000 </r>
       <r>   13.8027    0.0000 </r>
       <r>   16.8573    0.0000 </r>
       <r>   22.5503    0.0000 </r>
       <r>   26.9950    0.0000 </r>
       <r>   27.7928    0.0000 </r>
       <r>   35.0492    0.0000 </r>
       <r>   39.1330    0.0000 </r>
       <r>   42.3337    0.0000 </r>
      </set>
      <set comment="kpoint 66">
       <r>    5.8091    1.0000 </r>
       <r>    6.4750    1.0000 </r>
       <r>   10.6534    1.0000 </r>
       <r>   12.0853    1.0000 </r>
       <r>   13.8026    0.0000 </r>
       <r>   16.8572    0.0000 </r>
       <r>   22.5502    0.0000 </r>
       <r>   26.9951    0.0000 </r>
       <r>   27.7928    0.0000 </r>
       <r>   35.0493    0.0000 </r>
       <r>   39.1330    0.0000 </r>
       <r>   42.3338    0.0000 </r>
      </set>
      <set comment="kpoint 67">
       <r>    5.8092    1.0000 </r>
       <r>    6.4750    1.0000 </r>
       <r>   10.6534    1.0000 </r>
       <r>   12.0853    1.0000 </r>
       <r>   13.8027    0.0000 </r>
       <r>   16.8573    0.0000 </r>
       <r>   22.5504    0.0000 </r>
       <r>   26.9951    0.0000 </r>
       <r>   27.7926    0.0000 </r>
       <r>   35.0492    0.0000 </r>
       <r>   39.1332    0.0000 </r>
       <r>   42.3336    0.0000 </r>
      </set>
      <set comment="kpoint 68">
       <r>    5.8091    1.0000 </r>
       <r>    6.4750    1.0000 </r>
       <r>   10.6534    1.0000 </r>
       <r>   12.0853    1.0000 </r>
       <r>   13.8027    0.0000 </r>
       <r>   16.8573    0.0000 </r>
       <r>   22.5503    0.0000 </r>
       <r>   26.9950    0.0000 </r>
       <r>   27.7928    0.0000 </r>
       <r>   35.0492    0.0000 </r>
       <r>   39.1330    0.0000 </r>
       <r>   42.3337    0.0000 </r>
      </set>
      <set comment="kpoint 69">
       <r>    5.8091    1.0000 </r>
       <r>    6.4750    1.0000 </r>
       <r>   10.6534    1.0000 </r>
       <r>   12.0853    1.0000 </r>
       <r>   13.8027    0.0000 </r>
       <r>   16.8573    0.0000 </r>
       <r>   22.5502    0.0000 </r>
       <r>   26.9951    0.0000 </r>
       <r>   27.7928    0.0000 </r>
       <r>   35.0493    0.0000 </r>
       <r>   39.1330    0.0000 </r>
       <r>   42.3338    0.0000 </r>
      </set>
      <set comment="kpoint 70">
       <r>    5.8092    1.0000 </r>
       <r>    6.4750    1.0000 </r>
       <r>   10.6534    1.0000 </r>
       <r>   12.0853    1.0000 </r>
       <r>   13.8027    0.0000 </r>
       <r>   16.8573    0.0000 </r>
       <r>   22.5504    0.0000 </r>
       <r>   26.9951    0.0000 </r>
       <r>   27.7926    0.0000 </r>
       <r>   35.0492    0.0000 </r>
       <r>   39.1332    0.0000 </r>
       <r>   42.3337    0.0000 </r>
      </set>
      <set comment="kpoint 71">
       <r>    5.8091    1.0000 </r>
       <r>    6.4750    1.0000 </r>
       <r>   10.6534    1.0000 </r>
       <r>   12.0853    1.0000 </r>
       <r>   13.8027    0.0000 </r>
       <r>   16.8573    0.0000 </r>
       <r>   22.5503    0.0000 </r>
       <r>   26.9950    0.0000 </r>
       <r>   27.7928    0.0000 </r>
       <r>   35.0492    0.0000 </r>
       <r>   39.1330    0.0000 </r>
       <r>   42.3337    0.0000 </r>
      </set>
      <set comment="kpoint 72">
       <r>    5.8091    1.0000 </r>
       <r>    6.4750    1.0000 </r>
       <r>   10.6534    1.0000 </r>
       <r>   12.0853    1.0000 </r>
       <r>   13.8027    0.0000 </r>
       <r>   16.8572    0.0000 </r>
       <r>   22.5502    0.0000 </r>
       <r>   26.9951    0.0000 </r>
       <r>   27.7929    0.0000 </r>
       <r>   35.0493    0.0000 </r>
       <r>   39.1330    0.0000 </r>
       <r>   42.3338    0.0000 </r>
      </set>
      <set comment="kpoint 73">
       <r>    5.8092    1.0000 </r>
       <r>    6.4750    1.0000 </r>
       <r>   10.6534    1.0000 </r>
       <r>   12.0853    1.0000 </r>
       <r>   13.8027    0.0000 </r>
       <r>   16.8573    0.0000 </r>
       <r>   22.5504    0.0000 </r>
       <r>   26.9951    0.0000 </r>
       <r>   27.7927    0.0000 </r>
       <r>   35.0492    0.0000 </r>
       <r>   39.1332    0.0000 </r>
       <r>   42.3337    0.0000 </r>
      </set>
      <set comment="kpoint 74">
       <r>    6.5693    1.0000 </r>
       <r>    7.7259    1.0000 </r>
       <r>    9.1084    1.0000 </r>
       <r>   11.2067    1.0000 </r>
       <r>   12.7183    1.0000 </r>
       <r>   18.2153    0.0000 </r>
       <r>   23.1084    0.0000 </r>
       <r>   24.1530    0.0000 </r>
       <r>   31.3274    0.0000 </r>
       <r>   33.1319    0.0000 </r>
       <r>   40.7370    0.0000 </r>
       <r>   41.7793    0.0000 </r>
      </set>
      <set comment="kpoint 75">
       <r>    6.5693    1.0000 </r>
       <r>    7.7259    1.0000 </r>
       <r>    9.1084    1.0000 </r>
       <r>   11.2067    1.0000 </r>
       <r>   12.7183    1.0000 </r>
       <r>   18.2153    0.0000 </r>
       <r>   23.1083    0.0000 </r>
       <r>   24.1530    0.0000 </r>
       <r>   31.3274    0.0000 </r>
       <r>   33.1319    0.0000 </r>
       <r>   40.7370    0.0000 </r>
       <r>   41.7793    0.0000 </r>
      </set>
      <set comment="kpoint 76">
       <r>    6.5693    1.0000 </r>
       <r>    7.7259    1.0000 </r>
       <r>    9.1084    1.0000 </r>
       <r>   11.2067    1.0000 </r>
       <r>   12.7183    1.0000 </r>
       <r>   18.2153    0.0000 </r>
       <r>   23.1083    0.0000 </r>
       <r>   24.1530    0.0000 </r>
       <r>   31.3274    0.0000 </r>
       <r>   33.1319    0.0000 </r>
       <r>   40.7370    0.0000 </r>
       <r>   41.7793    0.0000 </r>
      </set>
      <set comment="kpoint 77">
       <r>    6.5692    1.0000 </r>
       <r>    7.7259    1.0000 </r>
       <r>    9.1084    1.0000 </r>
       <r>   11.2068    1.0000 </r>
       <r>   12.7183    1.0000 </r>
       <r>   18.2151    0.0000 </r>
       <r>   23.1083    0.0000 </r>
       <r>   24.1530    0.0000 </r>
       <r>   31.3275    0.0000 </r>
       <r>   33.1320    0.0000 </r>
       <r>   40.7370    0.0000 </r>
       <r>   41.7794    0.0000 </r>
      </set>
      <set comment="kpoint 78">
       <r>    6.5692    1.0000 </r>
       <r>    7.7259    1.0000 </r>
       <r>    9.1084    1.0000 </r>
       <r>   11.2068    1.0000 </r>
       <r>   12.7183    1.0000 </r>
       <r>   18.2152    0.0000 </r>
       <r>   23.1083    0.0000 </r>
       <r>   24.1530    0.0000 </r>
       <r>   31.3275    0.0000 </r>
       <r>   33.1319    0.0000 </r>
       <r>   40.7370    0.0000 </r>
       <r>   41.7794    0.0000 </r>
      </set>
      <set comment="kpoint 79">
       <r>    6.5692    1.0000 </r>
       <r>    7.7259    1.0000 </r>
       <r>    9.1084    1.0000 </r>
       <r>   11.2068    1.0000 </r>
       <r>   12.7183    1.0000 </r>
       <r>   18.2151    0.0000 </r>
       <r>   23.1083    0.0000 </r>
       <r>   24.1530    0.0000 </r>
       <r>   31.3275    0.0000 </r>
       <r>   33.1320    0.0000 </r>
       <r>   40.7370    0.0000 </r>
       <r>   41.7794    0.0000 </r>
      </set>
      <set comment="kpoint 80">
       <r>    5.1622    1.0000 </r>
       <r>    5.6762    1.0000 </r>
       <r>   13.5130    0.8921 </r>
       <r>   14.0966    0.0000 </r>
       <r>   14.0967    0.0000 </r>
       <r>   15.1208    0.0000 </r>
       <r>   23.6627    0.0000 </r>
       <r>   25.2548    0.0000 </r>
       <r>   25.2550    0.0000 </r>
       <r>   35.0022    0.0000 </r>
       <r>   38.7848    0.0000 </r>
       <r>   42.7269    0.0000 </r>
      </set>
      <set comment="kpoint 81">
       <r>    5.1622    1.0000 </r>
       <r>    5.6762    1.0000 </r>
       <r>   13.5130    0.8921 </r>
       <r>   14.0966    0.0000 </r>
       <r>   14.0967    0.0000 </r>
       <r>   15.1208    0.0000 </r>
       <r>   23.6627    0.0000 </r>
       <r>   25.2548    0.0000 </r>
       <r>   25.2550    0.0000 </r>
       <r>   35.0022    0.0000 </r>
       <r>   38.7848    0.0000 </r>
       <r>   42.7270    0.0000 </r>
      </set>
      <set comment="kpoint 82">
       <r>    5.1622    1.0000 </r>
       <r>    5.6762    1.0000 </r>
       <r>   13.5130    0.8921 </r>
       <r>   14.0966    0.0000 </r>
       <r>   14.0967    0.0000 </r>
       <r>   15.1208    0.0000 </r>
       <r>   23.6627    0.0000 </r>
       <r>   25.2548    0.0000 </r>
       <r>   25.2550    0.0000 </r>
       <r>   35.0022    0.0000 </r>
       <r>   38.7848    0.0000 </r>
       <r>   42.7269    0.0000 </r>
      </set>
      <set comment="kpoint 83">
       <r>    6.8281    1.0000 </r>
       <r>    7.2139    1.0000 </r>
       <r>    8.3592    1.0000 </r>
       <r>   11.5868    1.0000 </r>
       <r>   12.2409    1.0000 </r>
       <r>   15.7744    0.0000 </r>
       <r>   24.9487    0.0000 </r>
       <r>   27.2638    0.0000 </r>
       <r>   30.0983    0.0000 </r>
       <r>   36.4836    0.0000 </r>
       <r>   37.0045    0.0000 </r>
       <r>   43.6805    0.0000 </r>
      </set>
      <set comment="kpoint 84">
       <r>    6.8281    1.0000 </r>
       <r>    7.2139    1.0000 </r>
       <r>    8.3592    1.0000 </r>
       <r>   11.5868    1.0000 </r>
       <r>   12.2409    1.0000 </r>
       <r>   15.7744    0.0000 </r>
       <r>   24.9487    0.0000 </r>
       <r>   27.2638    0.0000 </r>
       <r>   30.0982    0.0000 </r>
       <r>   36.4836    0.0000 </r>
       <r>   37.0045    0.0000 </r>
       <r>   43.6805    0.0000 </r>
      </set>
      <set comment="kpoint 85">
       <r>    6.8281    1.0000 </r>
       <r>    7.2139    1.0000 </r>
       <r>    8.3592    1.0000 </r>
       <r>   11.5868    1.0000 </r>
       <r>   12.2409    1.0000 </r>
       <r>   15.7744    0.0000 </r>
       <r>   24.9487    0.0000 </r>
       <r>   27.2638    0.0000 </r>
       <r>   30.0983    0.0000 </r>
       <r>   36.4836    0.0000 </r>
       <r>   37.0045    0.0000 </r>
       <r>   43.6805    0.0000 </r>
      </set>
      <set comment="kpoint 86">
       <r>    6.8281    1.0000 </r>
       <r>    7.2138    1.0000 </r>
       <r>    8.3592    1.0000 </r>
       <r>   11.5868    1.0000 </r>
       <r>   12.2409    1.0000 </r>
       <r>   15.7745    0.0000 </r>
       <r>   24.9487    0.0000 </r>
       <r>   27.2639    0.0000 </r>
       <r>   30.0982    0.0000 </r>
       <r>   36.4836    0.0000 </r>
       <r>   37.0044    0.0000 </r>
       <r>   43.6804    0.0000 </r>
      </set>
      <set comment="kpoint 87">
       <r>    6.8281    1.0000 </r>
       <r>    7.2139    1.0000 </r>
       <r>    8.3592    1.0000 </r>
       <r>   11.5868    1.0000 </r>
       <r>   12.2409    1.0000 </r>
       <r>   15.7744    0.0000 </r>
       <r>   24.9487    0.0000 </r>
       <r>   27.2638    0.0000 </r>
       <r>   30.0983    0.0000 </r>
       <r>   36.4836    0.0000 </r>
       <r>   37.0045    0.0000 </r>
       <r>   43.6805    0.0000 </r>
      </set>
      <set comment="kpoint 88">
       <r>    6.8281    1.0000 </r>
       <r>    7.2138    1.0000 </r>
       <r>    8.3592    1.0000 </r>
       <r>   11.5868    1.0000 </r>
       <r>   12.2409    1.0000 </r>
       <r>   15.7745    0.0000 </r>
       <r>   24.9487    0.0000 </r>
       <r>   27.2639    0.0000 </r>
       <r>   30.0982    0.0000 </r>
       <r>   36.4836    0.0000 </r>
       <r>   37.0044    0.0000 </r>
       <r>   43.6804    0.0000 </r>
      </set>
      <set comment="kpoint 89">
       <r>    6.8281    1.0000 </r>
       <r>    7.2138    1.0000 </r>
       <r>    8.3592    1.0000 </r>
       <r>   11.5868    1.0000 </r>
       <r>   12.2409    1.0000 </r>
       <r>   15.7745    0.0000 </r>
       <r>   24.9487    0.0000 </r>
       <r>   27.2639    0.0000 </r>
       <r>   30.0982    0.0000 </r>
       <r>   36.4836    0.0000 </r>
       <r>   37.0044    0.0000 </r>
       <r>   43.6804    0.0000 </r>
      </set>
      <set comment="kpoint 90">
       <r>    6.8281    1.0000 </r>
       <r>    7.2138    1.0000 </r>
       <r>    8.3592    1.0000 </r>
       <r>   11.5868    1.0000 </r>
       <r>   12.2409    1.0000 </r>
       <r>   15.7745    0.0000 </r>
       <r>   24.9487    0.0000 </r>
       <r>   27.2639    0.0000 </r>
       <r>   30.0982    0.0000 </r>
       <r>   36.4836    0.0000 </r>
       <r>   37.0044    0.0000 </r>
       <r>   43.6804    0.0000 </r>
      </set>
      <set comment="kpoint 91">
       <r>    6.8281    1.0000 </r>
       <r>    7.2139    1.0000 </r>
       <r>    8.3592    1.0000 </r>
       <r>   11.5868    1.0000 </r>
       <r>   12.2409    1.0000 </r>
       <r>   15.7744    0.0000 </r>
       <r>   24.9487    0.0000 </r>
       <r>   27.2638    0.0000 </r>
       <r>   30.0983    0.0000 </r>
       <r>   36.4836    0.0000 </r>
       <r>   37.0045    0.0000 </r>
       <r>   43.6805    0.0000 </r>
      </set>
      <set comment="kpoint 92">
       <r>    6.8281    1.0000 </r>
       <r>    7.2138    1.0000 </r>
       <r>    8.3592    1.0000 </r>
       <r>   11.5868    1.0000 </r>
       <r>   12.2409    1.0000 </r>
       <r>   15.7745    0.0000 </r>
       <r>   24.9487    0.0000 </r>
       <r>   27.2639    0.0000 </r>
       <r>   30.0982    0.0000 </r>
       <r>   36.4836    0.0000 </r>
       <r>   37.0044    0.0000 </r>
       <r>   43.6804    0.0000 </r>
      </set>
      <set comment="kpoint 93">
       <r>    6.8281    1.0000 </r>
       <r>    7.2138    1.0000 </r>
       <r>    8.3592    1.0000 </r>
       <r>   11.5868    1.0000 </r>
       <r>   12.2409    1.0000 </r>
       <r>   15.7745    0.0000 </r>
       <r>   24.9487    0.0000 </r>
       <r>   27.2639    0.0000 </r>
       <r>   30.0982    0.0000 </r>
       <r>   36.4836    0.0000 </r>
       <r>   37.0044    0.0000 </r>
       <r>   43.6804    0.0000 </r>
      </set>
      <set comment="kpoint 94">
       <r>    6.8281    1.0000 </r>
       <r>    7.2139    1.0000 </r>
       <r>    8.3592    1.0000 </r>
       <r>   11.5868    1.0000 </r>
       <r>   12.2409    1.0000 </r>
       <r>   15.7744    0.0000 </r>
       <r>   24.9487    0.0000 </r>
       <r>   27.2638    0.0000 </r>
       <r>   30.0982    0.0000 </r>
       <r>   36.4836    0.0000 </r>
       <r>   37.0045    0.0000 </r>
       <r>   43.6805    0.0000 </r>
      </set>
      <set comment="kpoint 95">
       <r>    7.2085    1.0000 </r>
       <r>    7.2408    1.0000 </r>
       <r>    8.6867    1.0000 </r>
       <r>   10.9453    1.0000 </r>
       <r>   13.3232    1.0000 </r>
       <r>   19.7907    0.0000 </r>
       <r>   20.0241    0.0000 </r>
       <r>   26.8097    0.0000 </r>
       <r>   28.4264    0.0000 </r>
       <r>   35.0360    0.0000 </r>
       <r>   39.7870    0.0000 </r>
       <r>   44.6800    0.0000 </r>
      </set>
      <set comment="kpoint 96">
       <r>    7.2085    1.0000 </r>
       <r>    7.2408    1.0000 </r>
       <r>    8.6867    1.0000 </r>
       <r>   10.9453    1.0000 </r>
       <r>   13.3232    1.0000 </r>
       <r>   19.7907    0.0000 </r>
       <r>   20.0241    0.0000 </r>
       <r>   26.8097    0.0000 </r>
       <r>   28.4264    0.0000 </r>
       <r>   35.0360    0.0000 </r>
       <r>   39.7870    0.0000 </r>
       <r>   44.6800    0.0000 </r>
      </set>
      <set comment="kpoint 97">
       <r>    7.2085    1.0000 </r>
       <r>    7.2408    1.0000 </r>
       <r>    8.6867    1.0000 </r>
       <r>   10.9453    1.0000 </r>
       <r>   13.3232    1.0000 </r>
       <r>   19.7907    0.0000 </r>
       <r>   20.0241    0.0000 </r>
       <r>   26.8097    0.0000 </r>
       <r>   28.4264    0.0000 </r>
       <r>   35.0360    0.0000 </r>
       <r>   39.7870    0.0000 </r>
       <r>   44.6800    0.0000 </r>
      </set>
      <set comment="kpoint 98">
       <r>    7.2086    1.0000 </r>
       <r>    7.2408    1.0000 </r>
       <r>    8.6866    1.0000 </r>
       <r>   10.9453    1.0000 </r>
       <r>   13.3232    1.0000 </r>
       <r>   19.7905    0.0000 </r>
       <r>   20.0241    0.0000 </r>
       <r>   26.8098    0.0000 </r>
       <r>   28.4265    0.0000 </r>
       <r>   35.0361    0.0000 </r>
       <r>   39.7869    0.0000 </r>
       <r>   44.6801    0.0000 </r>
      </set>
      <set comment="kpoint 99">
       <r>    7.2086    1.0000 </r>
       <r>    7.2408    1.0000 </r>
       <r>    8.6866    1.0000 </r>
       <r>   10.9452    1.0000 </r>
       <r>   13.3232    1.0000 </r>
       <r>   19.7907    0.0000 </r>
       <r>   20.0242    0.0000 </r>
       <r>   26.8098    0.0000 </r>
       <r>   28.4264    0.0000 </r>
       <r>   35.0359    0.0000 </r>
       <r>   39.7869    0.0000 </r>
       <r>   44.6799    0.0000 </r>
      </set>
      <set comment="kpoint 100">
       <r>    7.2085    1.0000 </r>
       <r>    7.2408    1.0000 </r>
       <r>    8.6867    1.0000 </r>
       <r>   10.9453    1.0000 </r>
       <r>   13.3232    1.0000 </r>
       <r>   19.7907    0.0000 </r>
       <r>   20.0241    0.0000 </r>
       <r>   26.8097    0.0000 </r>
       <r>   28.4264    0.0000 </r>
       <r>   35.0360    0.0000 </r>
       <r>   39.7870    0.0000 </r>
       <r>   44.6800    0.0000 </r>
      </set>
[...]
       </set>
       <set comment="band 5">
        <r>  0.0140  0.0023  0.0009  0.0003  0.0709  0.0022  0.0848  0.2440  0.5521 </r>
       </set>
       <set comment="band 6">
        <r>  0.5261  0.0494  0.0185  0.0062  0.0487  0.0093  0.0418  0.1879  0.0053 </r>
       </set>
       <set comment="band 7">
        <r>  0.0000  0.0352  0.3412  0.2314  0.0392  0.0852  0.2033  0.0058  0.0306 </r>
       </set>
       <set comment="band 8">
        <r>  0.1000  0.3736  0.1401  0.0467  0.0003  0.2009  0.0946  0.0126  0.0003 </r>
       </set>
       <set comment="band 9">
        <r>  0.0000  0.0615  0.0122  0.2602  0.2429  0.0316  0.0108  0.0873  0.1032 </r>
       </set>
       <set comment="band 10">
        <r>  0.0000  0.0660  0.0585  0.0949  0.0011  0.0158  0.0618  0.0202  0.0449 </r>
       </set>
       <set comment="band 11">
        <r>  0.0047  0.0088  0.0033  0.0011  0.2202  0.0027  0.1129  0.1103  0.0768 </r>
       </set>
       <set comment="band 12">
        <r>  0.0000  0.0026  0.0095  0.0954  0.0841  0.0003  0.0102  0.0630  0.0957 </r>
       </set>
      </set>
      <set comment="kpoint 102">
       <set comment="band 1">
        <r>  0.0985  0.0711  0.0000  0.0355  0.0002  0.2333  0.0729  0.4665  0.0000 </r>
       </set>
       <set comment="band 2">
        <r>  0.0000  0.0234  0.0019  0.0468  0.0081  0.5191  0.0000  0.2596  0.0644 </r>
       </set>
       <set comment="band 3">
        <r>  0.0000  0.0110  0.1672  0.0221  0.0821  0.0179  0.0000  0.0090  0.6567 </r>
       </set>
       <set comment="band 4">
        <r>  0.0118  0.0231  0.0000  0.0115  0.7801  0.0007  0.0277  0.0013  0.0975 </r>
       </set>
       <set comment="band 5">
        <r>  0.0140  0.0023  0.0000  0.0012  0.0301  0.0430  0.7911  0.0860  0.0038 </r>
       </set>
       <set comment="band 6">
        <r>  0.5261  0.0494  0.0000  0.0247  0.0007  0.0573  0.1202  0.1146  0.0001 </r>
       </set>
       <set comment="band 7">
        <r>  0.0000  0.0352  0.5022  0.0704  0.0237  0.1007  0.0000  0.0503  0.1893 </r>
       </set>
       <set comment="band 8">
        <r>  0.1000  0.3736  0.0000  0.1868  0.1580  0.0432  0.0012  0.0865  0.0198 </r>
       </set>
       <set comment="band 9">
        <r>  0.0000  0.0615  0.1494  0.1230  0.0085  0.2660  0.0000  0.1330  0.0683 </r>
       </set>
       <set comment="band 10">
        <r>  0.0000  0.0660  0.0213  0.1321  0.0158  0.0011  0.0000  0.0006  0.1263 </r>
       </set>
       <set comment="band 11">
        <r>  0.0047  0.0088  0.0000  0.0044  0.0782  0.1448  0.0007  0.2895  0.0098 </r>
       </set>
       <set comment="band 12">
        <r>  0.0000  0.0029  0.0985  0.0057  0.0170  0.0674  0.0000  0.0337  0.1360 </r>
       </set>
      </set>
      <set comment="kpoint 103">
       <set comment="band 1">
        <r>  0.0985  0.0000  0.0266  0.0800  0.0007  0.0020  0.3011  0.0806  0.3885 </r>
       </set>
       <set comment="band 2">
        <r>  0.0000  0.0356  0.0274  0.0091  0.2395  0.0798  0.2994  0.1329  0.0996 </r>
       </set>
       <set comment="band 3">
        <r>  0.0000  0.1926  0.0057  0.0019  0.2978  0.0993  0.2074  0.0921  0.0691 </r>
       </set>
       <set comment="band 4">
        <r>  0.0118  0.0000  0.0087  0.0260  0.0877  0.2631  0.0385  0.3797  0.1382 </r>
       </set>
       <set comment="band 5">
        <r>  0.0140  0.0000  0.0009  0.0026  0.1441  0.4323  0.0221  0.2518  0.1037 </r>
       </set>
       <set comment="band 6">
        <r>  0.5261  0.0000  0.0185  0.0556  0.0063  0.0188  0.0920  0.0107  0.1652 </r>
       </set>
       <set comment="band 7">
        <r>  0.0000  0.5871  0.0155  0.0052  0.2556  0.0852  0.0131  0.0058  0.0043 </r>
       </set>
       <set comment="band 8">
        <r>  0.1000  0.0000  0.1401  0.4203  0.0211  0.0632  0.0179  0.0275  0.1790 </r>
       </set>
       <set comment="band 9">
        <r>  0.0000  0.0046  0.2470  0.0823  0.0949  0.0316  0.1965  0.0873  0.0655 </r>
       </set>
       <set comment="band 10">
        <r>  0.0000  0.0190  0.1503  0.0501  0.0473  0.0158  0.0454  0.0202  0.0151 </r>
       </set>
       <set comment="band 11">
        <r>  0.0047  0.0000  0.0033  0.0099  0.0008  0.0025  0.2220  0.2269  0.0708 </r>
       </set>
       <set comment="band 12">
        <r>  0.0000  0.0442  0.0478  0.0160  0.0009  0.0003  0.1417  0.0630  0.0473 </r>
       </set>
      </set>
      <set comment="kpoint 104">
       <set comment="band 1">
        <r>  0.0985  0.0000  0.0267  0.0800  0.0639  0.1918  0.2262  0.1594  0.1315 </r>
       </set>
       <set comment="band 2">
        <r>  0.0000  0.0138  0.0438  0.0146  0.5755  0.1918  0.0472  0.0210  0.0157 </r>
       </set>
       <set comment="band 3">
        <r>  0.0000  0.0524  0.1109  0.0370  0.0985  0.0328  0.3569  0.1586  0.1190 </r>
       </set>
       <set comment="band 4">
        <r>  0.0118  0.0000  0.0087  0.0260  0.0791  0.2373  0.0630  0.4261  0.1018 </r>
       </set>
       <set comment="band 5">
        <r>  0.0140  0.0000  0.0009  0.0026  0.0676  0.2027  0.0848  0.0435  0.5554 </r>
       </set>
       <set comment="band 6">
        <r>  0.5261  0.0000  0.0185  0.0556  0.0473  0.1418  0.0418  0.0554  0.0068 </r>
       </set>
       <set comment="band 7">
        <r>  0.0000  0.1529  0.3412  0.1137  0.0019  0.0006  0.2033  0.0904  0.0678 </r>
       </set>
       <set comment="band 8">
        <r>  0.1000  0.0000  0.1401  0.4203  0.0006  0.0019  0.0946  0.2116  0.0000 </r>
       </set>
       <set comment="band 9">
        <r>  0.0000  0.3176  0.0122  0.0041  0.3425  0.1142  0.0108  0.0048  0.0036 </r>
       </set>
       <set comment="band 10">
        <r>  0.0000  0.1414  0.0585  0.0195  0.0254  0.0085  0.0618  0.0275  0.0206 </r>
       </set>
       <set comment="band 11">
        <r>  0.0047  0.0000  0.0033  0.0099  0.0364  0.1092  0.1129  0.0038  0.2607 </r>
       </set>
       <set comment="band 12">
        <r>  0.0000  0.0959  0.0103  0.0032  0.1763  0.0588  0.0102  0.0045  0.0034 </r>
       </set>
      </set>
      <set comment="kpoint 105">
       <set comment="band 1">
        <r>  0.0985  0.0711  0.0267  0.0089  0.1697  0.0637  0.3013  0.0188  0.2194 </r>
       </set>
       <set comment="band 2">
        <r>  0.0000  0.0234  0.0274  0.0213  0.3354  0.1918  0.2992  0.0210  0.0038 </r>
       </set>
       <set comment="band 3">
        <r>  0.0000  0.0110  0.0057  0.1835  0.0672  0.0328  0.2073  0.1586  0.2997 </r>
       </set>
       <set comment="band 4">
        <r>  0.0118  0.0231  0.0087  0.0029  0.2153  0.5655  0.0385  0.0774  0.0106 </r>
       </set>
       <set comment="band 5">
        <r>  0.0140  0.0023  0.0009  0.0003  0.0086  0.0645  0.0221  0.6196  0.2392 </r>
       </set>
       <set comment="band 6">
        <r>  0.5261  0.0494  0.0185  0.0062  0.0376  0.0205  0.0921  0.0090  0.1338 </r>
       </set>
       <set comment="band 7">
        <r>  0.0000  0.0352  0.0155  0.5571  0.1237  0.0006  0.0131  0.0904  0.1362 </r>
       </set>
       <set comment="band 8">
        <r>  0.1000  0.3736  0.1401  0.0467  0.1435  0.0577  0.0179  0.0330  0.0565 </r>
       </set>
       <set comment="band 9">
        <r>  0.0000  0.0615  0.2470  0.0254  0.1603  0.1142  0.1965  0.0048  0.0000 </r>
       </set>
       <set comment="band 10">
        <r>  0.0000  0.0660  0.1503  0.0031  0.0084  0.0085  0.0454  0.0275  0.0540 </r>
       </set>
       <set comment="band 11">
        <r>  0.0047  0.0088  0.0033  0.0011  0.0360  0.1870  0.2220  0.0424  0.0356 </r>
       </set>
       <set comment="band 12">
        <r>  0.0000  0.0027  0.0471  0.0581  0.0257  0.0588  0.1418  0.0045  0.0225 </r>
       </set>
      </set>
      <set comment="kpoint 106">
       <set comment="band 1">
        <r>  0.0985  0.0711  0.0266  0.0089  0.1805  0.0532  0.2261  0.2979  0.0151 </r>
       </set>
       <set comment="band 2">
        <r>  0.0000  0.0234  0.0438  0.0050  0.4472  0.0798  0.0473  0.1331  0.1439 </r>
       </set>
       <set comment="band 3">
        <r>  0.0000  0.0110  0.1109  0.0783  0.0007  0.0993  0.3568  0.0922  0.2167 </r>
       </set>
       <set comment="band 4">
        <r>  0.0118  0.0231  0.0087  0.0029  0.1758  0.6050  0.0630  0.0584  0.0051 </r>
       </set>
       <set comment="band 5">
        <r>  0.0140  0.0023  0.0009  0.0003  0.0709  0.0022  0.0848  0.2440  0.5521 </r>
       </set>
       <set comment="band 6">
        <r>  0.5261  0.0494  0.0186  0.0062  0.0487  0.0093  0.0418  0.1879  0.0053 </r>
       </set>
       <set comment="band 7">
        <r>  0.0000  0.0352  0.3411  0.2314  0.0392  0.0852  0.2032  0.0058  0.0305 </r>
       </set>
       <set comment="band 8">
        <r>  0.1000  0.3736  0.1401  0.0467  0.0003  0.2009  0.0946  0.0126  0.0003 </r>
       </set>
       <set comment="band 9">
        <r>  0.0000  0.0615  0.0122  0.2602  0.2429  0.0316  0.0108  0.0873  0.1032 </r>
       </set>
       <set comment="band 10">
        <r>  0.0000  0.0660  0.0585  0.0949  0.0011  0.0158  0.0618  0.0202  0.0449 </r>
       </set>
       <set comment="band 11">
        <r>  0.0047  0.0088  0.0033  0.0011  0.2203  0.0027  0.1129  0.1103  0.0768 </r>
       </set>
       <set comment="band 12">
        <r>  0.0000  0.0022  0.0102  0.0974  0.0841  0.0003  0.0102  0.0630  0.0956 </r>
       </set>
      </set>
      <set comment="kpoint 107">
       <set comment="band 1">
        <r>  0.0388  0.0186  0.0279  0.0093  0.5346  0.0168  0.2005  0.0084  0.0668 </r>
       </set>
       <set comment="band 2">
        <r>  0.0000  0.0231  0.0346  0.0115  0.2044  0.0000  0.6898  0.0000  0.0255 </r>
       </set>
       <set comment="band 3">
        <r>  0.0000  0.0762  0.0000  0.1524  0.0409  0.1228  0.0000  0.2456  0.3274 </r>
       </set>
       <set comment="band 4">
        <r>  0.0392  0.0061  0.0092  0.0031  0.0167  0.5764  0.0063  0.2882  0.0021 </r>
       </set>
       <set comment="band 5">
        <r>  0.0000  0.0000  0.0000  0.0000  0.0550  0.1649  0.0000  0.3297  0.4396 </r>
       </set>
       <set comment="band 6">
        <r>  0.0000  0.2260  0.0000  0.4521  0.0181  0.0543  0.0000  0.1086  0.1448 </r>
       </set>
       <set comment="band 7">
        <r>  0.6386  0.0107  0.0160  0.0053  0.0525  0.0579  0.0197  0.0290  0.0066 </r>
       </set>
       <set comment="band 8">
        <r>  0.0000  0.2416  0.3625  0.1208  0.0352  0.0000  0.1189  0.0000  0.0044 </r>
       </set>
       <set comment="band 9">
        <r>  0.0117  0.1272  0.1907  0.0636  0.2971  0.0633  0.1114  0.0317  0.0371 </r>
       </set>
       <set comment="band 10">
        <r>  0.0000  0.0001  0.0002  0.0001  0.1915  0.0000  0.6465  0.0000  0.0239 </r>
       </set>
       <set comment="band 11">
        <r>  0.1550  0.0752  0.1128  0.0376  0.1218  0.0110  0.0456  0.0055  0.0152 </r>
       </set>
       <set comment="band 12">
        <r>  0.0000  0.0018  0.0000  0.0036  0.0147  0.0442  0.0000  0.0884  0.1179 </r>
       </set>
      </set>
      <set comment="kpoint 108">
       <set comment="band 1">
        <r>  0.0388  0.0186  0.0000  0.0372  0.0642  0.4872  0.0241  0.2436  0.0080 </r>
       </set>
       <set comment="band 2">
        <r>  0.0000  0.0231  0.0346  0.0115  0.0511  0.1533  0.0000  0.3066  0.4088 </r>
       </set>
       <set comment="band 3">
        <r>  0.0000  0.0762  0.1143  0.0381  0.0409  0.1228  0.0000  0.2456  0.3274 </r>
       </set>
       <set comment="band 4">
        <r>  0.0392  0.0061  0.0000  0.0123  0.5216  0.0716  0.1956  0.0358  0.0652 </r>
       </set>
       <set comment="band 5">
        <r>  0.0000  0.0000  0.0000  0.0000  0.2198  0.0000  0.7419  0.0000  0.0275 </r>
       </set>
       <set comment="band 6">
        <r>  0.0000  0.2260  0.3391  0.1130  0.0181  0.0543  0.0000  0.1086  0.1448 </r>
       </set>
       <set comment="band 7">
        <r>  0.6386  0.0107  0.0000  0.0213  0.1043  0.0061  0.0391  0.0030  0.0130 </r>
       </set>
       <set comment="band 8">
        <r>  0.0000  0.2416  0.3624  0.1208  0.0088  0.0264  0.0000  0.0529  0.0705 </r>
       </set>
       <set comment="band 9">
        <r>  0.0117  0.1272  0.0000  0.2544  0.0030  0.3574  0.0011  0.1787  0.0004 </r>
       </set>
       <set comment="band 10">
        <r>  0.0000  0.0001  0.0002  0.0001  0.0479  0.1436  0.0000  0.2873  0.3831 </r>
       </set>
       <set comment="band 11">
        <r>  0.1549  0.0752  0.0000  0.1504  0.0703  0.0624  0.0264  0.0312  0.0088 </r>
       </set>
       <set comment="band 12">
        <r>  0.0000  0.0018  0.0027  0.0009  0.0147  0.0442  0.0000  0.0884  0.1179 </r>
       </set>
      </set>
      <set comment="kpoint 109">
       <set comment="band 1">
        <r>  0.0388  0.0186  0.0279  0.0093  0.2283  0.3231  0.0856  0.1615  0.0285 </r>
       </set>
       <set comment="band 2">
        <r>  0.0000  0.0231  0.0000  0.0461  0.0511  0.1533  0.0000  0.3066  0.4088 </r>
       </set>
       <set comment="band 3">
        <r>  0.0000  0.0762  0.1143  0.0381  0.1637  0.0000  0.5525  0.0000  0.0205 </r>
       </set>
       <set comment="band 4">
        <r>  0.0392  0.0061  0.0092  0.0031  0.3514  0.2418  0.1318  0.1209  0.0439 </r>
       </set>
       <set comment="band 5">
        <r>  0.0000  0.0000  0.0000  0.0000  0.0550  0.1649  0.0000  0.3297  0.4396 </r>
       </set>
       <set comment="band 6">
        <r>  0.0000  0.2260  0.3391  0.1130  0.0724  0.0000  0.2444  0.0000  0.0091 </r>
       </set>
       <set comment="band 7">
        <r>  0.6386  0.0107  0.0160  0.0053  0.0088  0.1016  0.0033  0.0508  0.0011 </r>
       </set>
       <set comment="band 8">
        <r>  0.0000  0.2416  0.0000  0.4833  0.0088  0.0264  0.0000  0.0528  0.0705 </r>
       </set>
       <set comment="band 9">
        <r>  0.0117  0.1272  0.1907  0.0636  0.2405  0.1198  0.0902  0.0599  0.0301 </r>
       </set>
       <set comment="band 10">
        <r>  0.0000  0.0001  0.0000  0.0003  0.0479  0.1437  0.0000  0.2873  0.3831 </r>
       </set>
       <set comment="band 11">
        <r>  0.1550  0.0752  0.1128  0.0376  0.0070  0.1257  0.0026  0.0629  0.0009 </r>
       </set>
       <set comment="band 12">
        <r>  0.0000  0.0018  0.0027  0.0009  0.0589  0.0000  0.1989  0.0000  0.0074 </r>
       </set>
      </set>
      <set comment="kpoint 110">
       <set comment="band 1">
        <r>  0.0388  0.0186  0.0279  0.0093  0.5346  0.0168  0.2005  0.0084  0.0668 </r>
       </set>
       <set comment="band 2">
        <r>  0.0000  0.0231  0.0346  0.0115  0.2044  0.0000  0.6898  0.0000  0.0255 </r>
       </set>
       <set comment="band 3">
        <r>  0.0000  0.0762  0.0000  0.1524  0.0409  0.1228  0.0000  0.2456  0.3274 </r>
       </set>
       <set comment="band 4">
        <r>  0.0392  0.0061  0.0092  0.0031  0.0167  0.5764  0.0063  0.2882  0.0021 </r>
       </set>
       <set comment="band 5">
        <r>  0.0000  0.0000  0.0000  0.0000  0.0550  0.1649  0.0000  0.3297  0.4396 </r>
       </set>
       <set comment="band 6">
        <r>  0.0000  0.2260  0.0000  0.4521  0.0181  0.0543  0.0000  0.1086  0.1448 </r>
       </set>
       <set comment="band 7">
        <r>  0.6386  0.0107  0.0160  0.0053  0.0525  0.0579  0.0197  0.0290  0.0066 </r>
       </set>
       <set comment="band 8">
        <r>  0.0000  0.2416  0.3625  0.1208  0.0352  0.0000  0.1189  0.0000  0.0044 </r>
       </set>
       <set comment="band 9">
        <r>  0.0117  0.1272  0.1907  0.0636  0.2971  0.0633  0.1114  0.0317  0.0371 </r>
       </set>
       <set comment="band 10">
        <r>  0.0000  0.0001  0.0002  0.0001  0.1915  0.0000  0.6465  0.0000  0.0239 </r>
       </set>
       <set comment="band 11">
        <r>  0.1550  0.0752  0.1128  0.0376  0.1218  0.0110  0.0456  0.0055  0.0152 </r>
       </set>
       <set comment="band 12">
        <r>  0.0000  0.0018  0.0000  0.0036  0.0147  0.0442  0.0000  0.0884  0.1179 </r>
       </set>
      </set>
      <set comment="kpoint 111">
       <set comment="band 1">
        <r>  0.0388  0.0186  0.0000  0.0372  0.0642  0.4872  0.0241  0.2436  0.0080 </r>
       </set>
       <set comment="band 2">
        <r>  0.0000  0.0231  0.0346  0.0115  0.0511  0.1533  0.0000  0.3066  0.4088 </r>
       </set>
       <set comment="band 3">
        <r>  0.0000  0.0762  0.1143  0.0381  0.0409  0.1228  0.0000  0.2456  0.3274 </r>
       </set>
       <set comment="band 4">
        <r>  0.0392  0.0061  0.0000  0.0123  0.5216  0.0716  0.1956  0.0358  0.0652 </r>
       </set>
       <set comment="band 5">
        <r>  0.0000  0.0000  0.0000  0.0000  0.2198  0.0000  0.7419  0.0000  0.0275 </r>
       </set>
       <set comment="band 6">
        <r>  0.0000  0.2260  0.3391  0.1130  0.0181  0.0543  0.0000  0.1086  0.1448 </r>
       </set>
       <set comment="band 7">
        <r>  0.6386  0.0107  0.0000  0.0213  0.1043  0.0061  0.0391  0.0030  0.0130 </r>
       </set>
       <set comment="band 8">
        <r>  0.0000  0.2416  0.3624  0.1208  0.0088  0.0264  0.0000  0.0528  0.0705 </r>
       </set>
       <set comment="band 9">
        <r>  0.0117  0.1272  0.0000  0.2543  0.0030  0.3574  0.0011  0.1787  0.0004 </r>
       </set>
       <set comment="band 10">
        <r>  0.0000  0.0001  0.0002  0.0001  0.0479  0.1437  0.0000  0.2873  0.3831 </r>
       </set>
       <set comment="band 11">
        <r>  0.1550  0.0752  0.0000  0.1504  0.0703  0.0624  0.0264  0.0312  0.0088 </r>
       </set>
       <set comment="band 12">
        <r>  0.0000  0.0018  0.0027  0.0009  0.0147  0.0442  0.0000  0.0884  0.1179 </r>
       </set>
      </set>
      <set comment="kpoint 112">
       <set comment="band 1">
        <r>  0.0388  0.0186  0.0279  0.0093  0.2283  0.3231  0.0856  0.1615  0.0285 </r>
       </set>
       <set comment="band 2">
        <r>  0.0000  0.0231  0.0000  0.0461  0.0511  0.1533  0.0000  0.3066  0.4088 </r>
       </set>
       <set comment="band 3">
        <r>  0.0000  0.0762  0.1143  0.0381  0.1637  0.0000  0.5525  0.0000  0.0205 </r>
       </set>
       <set comment="band 4">
        <r>  0.0392  0.0061  0.0092  0.0031  0.3514  0.2418  0.1318  0.1209  0.0439 </r>
       </set>
       <set comment="band 5">
        <r>  0.0000  0.0000  0.0000  0.0000  0.0550  0.1649  0.0000  0.3297  0.4396 </r>
       </set>
       <set comment="band 6">
        <r>  0.0000  0.2260  0.3391  0.1130  0.0724  0.0000  0.2444  0.0000  0.0091 </r>
       </set>
       <set comment="band 7">
        <r>  0.6386  0.0107  0.0160  0.0053  0.0088  0.1016  0.0033  0.0508  0.0011 </r>
       </set>
       <set comment="band 8">
        <r>  0.0000  0.2416  0.0000  0.4833  0.0088  0.0264  0.0000  0.0529  0.0705 </r>
       </set>
       <set comment="band 9">
        <r>  0.0117  0.1272  0.1908  0.0636  0.2405  0.1199  0.0902  0.0599  0.0301 </r>
       </set>
       <set comment="band 10">
        <r>  0.0000  0.0001  0.0000  0.0003  0.0479  0.1436  0.0000  0.2873  0.3831 </r>
       </set>
       <set comment="band 11">
        <r>  0.1549  0.0752  0.1128  0.0376  0.0070  0.1257  0.0026  0.0628  0.0009 </r>
       </set>
       <set comment="band 12">
        <r>  0.0000  0.0018  0.0027  0.0009  0.0589  0.0000  0.1989  0.0000  0.0074 </r>
       </set>
      </set>
     </set>
    </set>
   </array>
  </projected>
 </calculation>
 <structure name="finalpos" >
  <crystal>
   <varray name="basis" >
    <v>       2.31798800       0.00000400       1.33830400 </v>
    <v>       0.77266800       2.18541700       1.33830400 </v>
    <v>       0.00000600       0.00000500       2.67658800 </v>
   </varray>
   <i name="volume">     13.55894405 </i>
   <varray name="rec_basis" >
    <v>       0.43140928      -0.15252706      -0.00000068 </v>
    <v>      -0.00000030       0.45757920      -0.00000085 </v>
    <v>      -0.21570610      -0.15252721       0.37361075 </v>
   </varray>
  </crystal>
  <varray name="positions" >
   <v>       0.00000000       0.00000000       0.00000000 </v>
  </varray>
 </structure>
</modeling>
