 vasp.6.2.0 18Jan21 (build Feb  1 2022 01:28:57) complex                         
 executed on             LinuxPGI date 2022.05.11  17:36:06
 running on   16 total cores
 distrk:  each k-point on   16 cores,    1 groups
 distr:  one band on NCORE=   4 cores,    4 groups


--------------------------------------------------------------------------------------------------------


 INCAR:
   ALGO = 38
   EDIFF = 0.0001
   EDIFFG = -0.03
   ENCUT = 320.0
   GGA = RP
   IBRION = 2
   ISIF = 0
   ISMEAR = 0
   ISPIN = 1
   ISYM = 0
   LASPH = False
   LORBIT = 11
   LREAL = False
   LVTOT = False
   LWAVE = False
   NCORE = 4
   NELM = 60
   NELMIN = 4
   NSW = 0
   PREC = Normal
   SIGMA = 0.05
   SYMPREC = 1e-06

 POTCAR:    PAW_PBE Pt 04Feb2005                  
 POTCAR:    PAW_PBE Pt 04Feb2005                  
   SHA256 =  3ed90460adef76debcff1cfb73ee1349b515b1a3db03439735b44de3a8db7dc8 Pt/POTCAR             
   COPYR  = (c) Copyright 04Feb2005 Georg Kresse                                                    
   COPYR  = This file is part of the software VASP. Any use, copying, and all other rights are regul
   COPYR  = If you do not have a valid VASP license, you may not use, copy or distribute this file. 
   VRHFIN =Pt: s1d9                                                                                 
   LEXCH  = PE                                                                                      
   EATOM  =   729.1176 eV,   53.5886 Ry                                                             
                                                                                                    
   TITEL  = PAW_PBE Pt 04Feb2005                                                                    
   LULTRA =        F    use ultrasoft PP ?                                                          
   IUNSCR =        1    unscreen: 0-lin 1-nonlin 2-no                                               
   RPACOR =    2.330    partial core radius                                                         
   POMASS =  195.080; ZVAL   =   10.000    mass and valenz                                          
   RCORE  =    2.600    outmost cutoff radius                                                       
   RWIGS  =    2.750; RWIGS  =    1.455    wigner-seitz radius (au A)                               
   ENMAX  =  230.283; ENMIN  =  172.712 eV                                                          
   ICORE  =        3    local potential                                                             
   LCOR   =        T    correct aug charges                                                         
   LPAW   =        T    paw PP                                                                      
   EAUG   =  358.966                                                                                
   DEXC   =    0.000                                                                                
   RMAX   =    2.658    core radius for proj-oper                                                   
   RAUG   =    1.300    factor for augmentation sphere                                              
   RDEP   =    2.761    radius for radial grids                                                     
   RDEPT  =    2.203    core radius for aug-charge                                                  
                                                                                                    
   Atomic configuration                                                                             
   16 entries                                                                                       
     n  l   j            E        occ.                                                              
     1  0  0.50    -78401.1885   2.0000                                                             
     2  0  0.50    -13770.7750   2.0000                                                             
     2  1  1.50    -11931.0468   6.0000                                                             
     3  0  0.50     -3234.7234   2.0000                                                             
     3  1  1.50     -2699.2216   6.0000                                                             
     3  2  2.50     -2119.5714  10.0000                                                             
     4  0  0.50      -695.1528   2.0000                                                             
     4  1  1.50      -519.6034   6.0000                                                             
     4  2  2.50      -306.6786  10.0000                                                             
     4  3  3.50       -70.1041  14.0000                                                             
     5  0  0.50      -101.7747   2.0000                                                             
     5  1  1.50       -55.9873   6.0000                                                             
     5  2  2.50        -6.1423   9.0000                                                             
     6  0  0.50        -5.6573   1.0000                                                             
     6  1  1.50        -6.8029   0.0000                                                             
     5  3  2.50        -1.3606   0.0000                                                             
   Description                                                                                      
     l       E           TYP  RCUT    TYP  RCUT                                                     
     2     -6.1423404     23  2.500                                                                 
     2     -7.5029230     23  2.500                                                                 
     0     -5.6573207     23  2.500                                                                 
     0      0.7416693     23  2.500                                                                 
     1     -2.7211652     23  2.600                                                                 
     1     20.4087390     23  2.600                                                                 
     3     -1.3605826     23  2.500                                                                 
  local pseudopotential read in
  partial core-charges read in
  partial kinetic energy density read in
  atomic valenz-charges read in
  non local Contribution for L=            2  read in
    real space projection operators read in
  non local Contribution for L=            2  read in
    real space projection operators read in
  non local Contribution for L=            0  read in
    real space projection operators read in
  non local Contribution for L=            0  read in
    real space projection operators read in
  non local Contribution for L=            1  read in
    real space projection operators read in
  non local Contribution for L=            1  read in
    real space projection operators read in
    PAW grid and wavefunctions read in
 
   number of l-projection  operators is LMAX  =            6
   number of lm-projection operators is LMMAX =           18
 
 -----------------------------------------------------------------------------
|                                                                             |
|               ----> ADVICE to this user running VASP <----                  |
|                                                                             |
|     You enforced a specific xc type in the INCAR file but a different       |
|     type was found in the POTCAR file.                                      |
|     I HOPE YOU KNOW WHAT YOU ARE DOING!                                     |
|                                                                             |
 -----------------------------------------------------------------------------

  PAW_PBE Pt 04Feb2005                  :
 energy of atom  1       EATOM= -729.1176
 kinetic energy error for atom=    0.0296 (will be added to EATOM!!)
 
 
 POSCAR: Pt1
  positions in direct lattice
  No initial velocities read in
 exchange correlation table for  LEXCH =        9
   RHO(1)=    0.500       N(1)  =     2000
   RHO(2)=  100.500       N(2)  =     4000
 


--------------------------------------------------------------------------------------------------------


 ion  position               nearest neighbor table
   1  0.000  0.000  0.000-
 

IMPORTANT INFORMATION: All symmetrisations will be switched off!
NOSYMM: (Re-)initialisation of all symmetry stuff for point group C_1.


----------------------------------------------------------------------------------------

                                     Primitive cell                                     

  volume of cell :      15.0971

  direct lattice vectors                    reciprocal lattice vectors
     2.402521000  0.000000000  1.387096000     0.416229452 -0.147159307  0.000000000
     0.800840000  2.265118000  1.387096000     0.000000000  0.441478104  0.000000000
     0.000000000  0.000000000  2.774192000    -0.208114726 -0.147159399  0.360465317

  length of vectors
     2.774192219  2.774191697  2.774192000     0.441477993  0.441478104  0.441478055

  position of ions in fractional coordinates (direct lattice)
     0.000000000  0.000000000  0.000000000

  ion indices of the primitive-cell ions
   primitive index   ion index
                 1           1

----------------------------------------------------------------------------------------

 
 
 KPOINTS: Automatic kpoint scheme                 

Automatic generation of k-mesh.
 Grid dimensions read from file:
 generate k-points for:    8    8    8

 Generating k-lattice:

  Cartesian coordinates                     Fractional coordinates (reciprocal lattice)
     0.052028682 -0.018394913  0.000000000     0.125000000 -0.000000000  0.000000000
     0.000000000  0.055184763  0.000000000     0.000000000  0.125000000  0.000000000
    -0.026014341 -0.018394925  0.045058165     0.000000000  0.000000000  0.125000000

  Length of vectors
     0.055184749  0.055184763  0.055184757

  Shift w.r.t. Gamma in fractional coordinates (k-lattice)
     0.000000000  0.000000000  0.000000000

 
 Subroutine IBZKPT returns following result:
 ===========================================
 
 Found    260 irreducible k-points:
 
 Following reciprocal coordinates:
            Coordinates               Weight
  0.000000  0.000000  0.000000      1.000000
  0.125000  0.000000  0.000000      2.000000
  0.000000  0.125000  0.000000      2.000000
  0.000000  0.000000  0.125000      2.000000
  0.125000  0.125000  0.125000      2.000000
  0.250000  0.000000  0.000000      2.000000
  0.000000  0.250000  0.000000      2.000000
  0.000000  0.000000  0.250000      2.000000
  0.250000  0.250000  0.250000      2.000000
  0.375000  0.000000  0.000000      2.000000
  0.000000  0.375000  0.000000      2.000000
  0.000000  0.000000  0.375000      2.000000
  0.375000  0.375000  0.375000      2.000000
  0.500000  0.000000  0.000000      1.000000
  0.000000  0.500000  0.000000      1.000000
  0.000000  0.000000  0.500000      1.000000
  0.500000  0.500000  0.500000      1.000000
  0.125000  0.125000  0.000000      2.000000
  0.000000  0.125000  0.125000      2.000000
  0.125000  0.000000  0.125000      2.000000
  0.250000  0.125000  0.000000      2.000000
  0.000000  0.250000  0.125000      2.000000
  0.125000  0.000000  0.250000      2.000000
  0.125000  0.125000 -0.125000      2.000000
  0.250000  0.125000  0.250000      2.000000
  0.125000  0.250000  0.000000      2.000000
  0.125000 -0.125000 -0.125000      2.000000
  0.250000  0.250000  0.125000      2.000000
  0.000000  0.125000  0.250000      2.000000
 -0.125000  0.125000 -0.125000      2.000000
  0.125000  0.250000  0.250000      2.000000
  0.250000  0.000000  0.125000      2.000000
  0.375000  0.125000  0.000000      2.000000
  0.000000  0.375000  0.125000      2.000000
  0.125000  0.000000  0.375000      2.000000
  0.125000  0.125000 -0.250000      2.000000
  0.375000  0.250000  0.375000      2.000000
  0.125000  0.375000  0.000000      2.000000
  0.250000 -0.125000 -0.125000      2.000000
  0.375000  0.375000  0.250000      2.000000
  0.000000  0.125000  0.375000      2.000000
 -0.125000  0.250000 -0.125000      2.000000
  0.250000  0.375000  0.375000      2.000000
  0.375000  0.000000  0.125000      2.000000
  0.500000  0.125000  0.000000      2.000000
  0.000000  0.500000  0.125000      2.000000
  0.125000  0.000000  0.500000      2.000000
  0.125000  0.125000 -0.375000      2.000000
  0.500000  0.375000  0.500000      2.000000
  0.125000  0.500000  0.000000      2.000000
  0.375000 -0.125000 -0.125000      2.000000
  0.500000  0.500000  0.375000      2.000000
  0.000000  0.125000  0.500000      2.000000
 -0.125000  0.375000 -0.125000      2.000000
  0.375000  0.500000  0.500000      2.000000
  0.500000  0.000000  0.125000      2.000000
 -0.375000  0.125000  0.000000      2.000000
  0.000000 -0.375000  0.125000      2.000000
  0.125000  0.000000 -0.375000      2.000000
  0.125000  0.125000  0.500000      2.000000
 -0.375000  0.500000 -0.375000      2.000000
  0.125000 -0.375000  0.000000      2.000000
  0.500000 -0.125000 -0.125000      2.000000
 -0.375000 -0.375000  0.500000      2.000000
  0.000000  0.125000 -0.375000      2.000000
 -0.125000  0.500000 -0.125000      2.000000
  0.500000 -0.375000 -0.375000      2.000000
 -0.375000  0.000000  0.125000      2.000000
 -0.250000  0.125000  0.000000      2.000000
  0.000000 -0.250000  0.125000      2.000000
  0.125000  0.000000 -0.250000      2.000000
  0.125000  0.125000  0.375000      2.000000
 -0.250000 -0.375000 -0.250000      2.000000
  0.125000 -0.250000  0.000000      2.000000
 -0.375000 -0.125000 -0.125000      2.000000
 -0.250000 -0.250000 -0.375000      2.000000
  0.000000  0.125000 -0.250000      2.000000
 -0.125000 -0.375000 -0.125000      2.000000
 -0.375000 -0.250000 -0.250000      2.000000
 -0.250000  0.000000  0.125000      2.000000
 -0.125000  0.125000  0.000000      2.000000
  0.000000 -0.125000  0.125000      2.000000
  0.125000  0.000000 -0.125000      2.000000
  0.125000  0.125000  0.250000      2.000000
 -0.125000 -0.250000 -0.125000      2.000000
 -0.250000 -0.125000 -0.125000      2.000000
  0.250000  0.250000  0.000000      2.000000
  0.000000  0.250000  0.250000      2.000000
  0.250000  0.000000  0.250000      2.000000
  0.375000  0.250000  0.000000      2.000000
  0.000000  0.375000  0.250000      2.000000
  0.250000  0.000000  0.375000      2.000000
  0.250000  0.250000 -0.125000      2.000000
  0.375000  0.125000  0.375000      2.000000
  0.250000  0.375000  0.000000      2.000000
  0.125000 -0.250000 -0.250000      2.000000
  0.375000  0.375000  0.125000      2.000000
  0.000000  0.250000  0.375000      2.000000
 -0.250000  0.125000 -0.250000      2.000000
  0.125000  0.375000  0.375000      2.000000
  0.375000  0.000000  0.250000      2.000000
  0.500000  0.250000  0.000000      2.000000
  0.000000  0.500000  0.250000      2.000000
  0.250000  0.000000  0.500000      2.000000
  0.250000  0.250000 -0.250000      2.000000
  0.500000  0.250000  0.500000      2.000000
  0.250000  0.500000  0.000000      2.000000
  0.250000 -0.250000 -0.250000      2.000000
  0.500000  0.500000  0.250000      2.000000
  0.000000  0.250000  0.500000      2.000000
 -0.250000  0.250000 -0.250000      2.000000
  0.250000  0.500000  0.500000      2.000000
  0.500000  0.000000  0.250000      2.000000
 -0.375000  0.250000  0.000000      2.000000
  0.000000 -0.375000  0.250000      2.000000
  0.250000  0.000000 -0.375000      2.000000
  0.250000  0.250000 -0.375000      2.000000
 -0.375000  0.375000 -0.375000      2.000000
  0.250000 -0.375000  0.000000      2.000000
  0.375000 -0.250000 -0.250000      2.000000
 -0.375000 -0.375000  0.375000      2.000000
  0.000000  0.250000 -0.375000      2.000000
 -0.250000  0.375000 -0.250000      2.000000
  0.375000 -0.375000 -0.375000      2.000000
 -0.375000  0.000000  0.250000      2.000000
 -0.250000  0.250000  0.000000      2.000000
  0.000000 -0.250000  0.250000      2.000000
  0.250000  0.000000 -0.250000      2.000000
  0.250000  0.250000  0.500000      2.000000
 -0.250000  0.500000 -0.250000      2.000000
  0.500000 -0.250000 -0.250000      2.000000
  0.375000  0.375000  0.000000      2.000000
  0.000000  0.375000  0.375000      2.000000
  0.375000  0.000000  0.375000      2.000000
  0.500000  0.375000  0.000000      2.000000
  0.000000  0.500000  0.375000      2.000000
  0.375000  0.000000  0.500000      2.000000
  0.375000  0.375000 -0.125000      2.000000
  0.500000  0.125000  0.500000      2.000000
  0.375000  0.500000  0.000000      2.000000
  0.125000 -0.375000 -0.375000      2.000000
  0.500000  0.500000  0.125000      2.000000
  0.000000  0.375000  0.500000      2.000000
 -0.375000  0.125000 -0.375000      2.000000
  0.125000  0.500000  0.500000      2.000000
  0.500000  0.000000  0.375000      2.000000
 -0.375000  0.375000  0.000000      2.000000
  0.000000 -0.375000  0.375000      2.000000
  0.375000  0.000000 -0.375000      2.000000
  0.375000  0.375000 -0.250000      2.000000
 -0.375000  0.250000 -0.375000      2.000000
  0.250000 -0.375000 -0.375000      2.000000
  0.500000  0.500000  0.000000      1.000000
  0.000000  0.500000  0.500000      1.000000
  0.500000  0.000000  0.500000      1.000000
  0.375000  0.250000  0.125000      2.000000
  0.125000  0.375000  0.250000      2.000000
  0.250000  0.125000  0.375000      2.000000
  0.250000  0.125000 -0.125000      2.000000
  0.375000  0.125000  0.250000      2.000000
  0.125000 -0.250000 -0.125000      2.000000
  0.125000  0.250000 -0.125000      2.000000
  0.125000 -0.125000 -0.250000      2.000000
  0.250000  0.375000  0.125000      2.000000
 -0.125000  0.125000 -0.250000      2.000000
 -0.250000  0.125000 -0.125000      2.000000
  0.125000  0.250000  0.375000      2.000000
  0.500000  0.250000  0.125000      2.000000
  0.125000  0.500000  0.250000      2.000000
  0.250000  0.125000  0.500000      2.000000
  0.250000  0.125000 -0.250000      2.000000
  0.500000  0.250000  0.375000      2.000000
  0.125000 -0.375000 -0.125000      2.000000
  0.125000  0.375000 -0.125000      2.000000
  0.250000 -0.125000 -0.250000      2.000000
 -0.375000 -0.250000  0.500000      2.000000
  0.375000  0.500000  0.250000      2.000000
 -0.125000  0.125000 -0.375000      2.000000
 -0.250000  0.250000  0.125000      2.000000
 -0.125000  0.125000  0.375000      2.000000
 -0.250000  0.250000 -0.125000      2.000000
  0.500000 -0.375000 -0.250000      2.000000
  0.250000  0.375000  0.500000      2.000000
 -0.375000 -0.125000  0.125000      2.000000
  0.125000 -0.250000  0.250000      2.000000
  0.375000 -0.125000  0.125000      2.000000
 -0.125000 -0.250000  0.250000      2.000000
 -0.250000  0.500000 -0.375000      2.000000
  0.500000 -0.125000 -0.250000      2.000000
 -0.250000  0.500000 -0.125000      2.000000
 -0.125000 -0.250000  0.500000      2.000000
 -0.375000  0.250000  0.125000      2.000000
  0.125000 -0.375000  0.250000      2.000000
  0.250000  0.125000 -0.375000      2.000000
 -0.375000  0.375000  0.500000      2.000000
  0.125000  0.500000 -0.125000      2.000000
  0.375000 -0.125000 -0.250000      2.000000
  0.500000 -0.375000  0.375000      2.000000
 -0.125000  0.125000  0.500000      2.000000
 -0.250000  0.375000 -0.125000      2.000000
  0.375000  0.500000 -0.375000      2.000000
  0.500000 -0.125000  0.125000      2.000000
 -0.125000 -0.250000  0.375000      2.000000
  0.500000  0.375000  0.125000      2.000000
  0.125000  0.500000  0.375000      2.000000
  0.375000  0.125000  0.500000      2.000000
  0.375000  0.250000 -0.125000      2.000000
  0.500000  0.125000  0.375000      2.000000
  0.125000 -0.375000 -0.250000      2.000000
  0.250000  0.375000 -0.125000      2.000000
  0.125000 -0.250000 -0.375000      2.000000
  0.375000  0.500000  0.125000      2.000000
 -0.250000  0.125000 -0.375000      2.000000
 -0.375000  0.125000 -0.250000      2.000000
  0.125000  0.375000  0.500000      2.000000
 -0.375000  0.375000  0.125000      2.000000
  0.125000 -0.375000  0.375000      2.000000
  0.375000  0.125000 -0.375000      2.000000
  0.375000  0.250000 -0.250000      2.000000
 -0.375000  0.250000  0.500000      2.000000
  0.125000  0.500000 -0.250000      2.000000
  0.250000  0.500000 -0.125000      2.000000
  0.250000 -0.250000 -0.375000      2.000000
  0.500000 -0.250000  0.375000      2.000000
  0.500000 -0.375000  0.250000      2.000000
 -0.250000  0.125000  0.500000      2.000000
 -0.250000  0.375000  0.250000      2.000000
 -0.125000  0.250000  0.500000      2.000000
 -0.375000  0.250000 -0.250000      2.000000
  0.375000  0.500000 -0.250000      2.000000
  0.250000  0.500000 -0.375000      2.000000
  0.500000 -0.250000  0.125000      2.000000
  0.250000 -0.250000  0.375000      2.000000
  0.500000 -0.125000  0.250000      2.000000
 -0.250000 -0.375000  0.250000      2.000000
 -0.250000  0.375000  0.500000      2.000000
  0.375000 -0.125000 -0.375000      2.000000
 -0.375000  0.375000 -0.125000      2.000000
 -0.125000 -0.375000  0.375000      2.000000
 -0.250000  0.375000  0.125000      2.000000
  0.125000 -0.250000  0.375000      2.000000
  0.375000  0.125000 -0.250000      2.000000
  0.375000  0.250000 -0.375000      2.000000
 -0.250000  0.375000 -0.375000      2.000000
  0.125000  0.375000 -0.250000      2.000000
  0.375000 -0.250000 -0.375000      2.000000
  0.375000 -0.375000  0.250000      2.000000
 -0.250000  0.125000  0.375000      2.000000
 -0.375000  0.375000  0.250000      2.000000
  0.250000  0.375000 -0.375000      2.000000
  0.375000 -0.250000  0.125000      2.000000
 -0.375000  0.500000  0.125000      2.000000
  0.125000 -0.375000  0.500000      2.000000
  0.500000  0.125000 -0.375000      2.000000
  0.500000  0.375000 -0.125000      2.000000
 -0.375000  0.125000  0.500000      2.000000
  0.125000  0.500000 -0.375000      2.000000
 -0.250000  0.500000  0.250000      2.000000
  0.250000 -0.250000  0.500000      2.000000
  0.500000  0.250000 -0.250000      2.000000
 
 Following cartesian coordinates:
            Coordinates               Weight
  0.000000  0.000000  0.000000      1.000000
  0.052029 -0.018395  0.000000      2.000000
  0.000000  0.055185  0.000000      2.000000
 -0.026014 -0.018395  0.045058      2.000000
  0.026014  0.018395  0.045058      2.000000
  0.104057 -0.036790  0.000000      2.000000
  0.000000  0.110370  0.000000      2.000000
 -0.052029 -0.036790  0.090116      2.000000
  0.052029  0.036790  0.090116      2.000000
  0.156086 -0.055185  0.000000      2.000000
  0.000000  0.165554  0.000000      2.000000
 -0.078043 -0.055185  0.135174      2.000000
  0.078043  0.055185  0.135174      2.000000
  0.208115 -0.073580  0.000000      1.000000
  0.000000  0.220739  0.000000      1.000000
 -0.104057 -0.073580  0.180233      1.000000
  0.104057  0.073580  0.180233      1.000000
  0.052029  0.036790  0.000000      2.000000
 -0.026014  0.036790  0.045058      2.000000
  0.026014 -0.036790  0.045058      2.000000
  0.104057  0.018395  0.000000      2.000000
 -0.026014  0.091975  0.045058      2.000000
  0.000000 -0.055185  0.090116      2.000000
  0.078043  0.055185 -0.045058      2.000000
  0.052029 -0.018395  0.090116      2.000000
  0.052029  0.091975  0.000000      2.000000
  0.078043 -0.055185 -0.045058      2.000000
  0.078043  0.055185  0.045058      2.000000
 -0.052029  0.018395  0.090116      2.000000
 -0.026014  0.091975 -0.045058      2.000000
  0.000000  0.055185  0.090116      2.000000
  0.078043 -0.055185  0.045058      2.000000
  0.156086  0.000000  0.000000      2.000000
 -0.026014  0.147159  0.045058      2.000000
 -0.026014 -0.073580  0.135174      2.000000
  0.104057  0.073580 -0.090116      2.000000
  0.078043  0.000000  0.135174      2.000000
  0.052029  0.147159  0.000000      2.000000
  0.130072 -0.073580 -0.045058      2.000000
  0.104057  0.073580  0.090116      2.000000
 -0.078043 -0.000000  0.135174      2.000000
 -0.026014  0.147159 -0.045058      2.000000
  0.026014  0.073580  0.135174      2.000000
  0.130072 -0.073580  0.045058      2.000000
  0.208115 -0.018395  0.000000      2.000000
 -0.026014  0.202344  0.045058      2.000000
 -0.052029 -0.091975  0.180233      2.000000
  0.130072  0.091975 -0.135174      2.000000
  0.104057  0.018395  0.180233      2.000000
  0.052029  0.202344  0.000000      2.000000
  0.182100 -0.091975 -0.045058      2.000000
  0.130072  0.091975  0.135174      2.000000
 -0.104057 -0.018395  0.180233      2.000000
 -0.026014  0.202344 -0.045058      2.000000
  0.052029  0.091975  0.180233      2.000000
  0.182100 -0.091975  0.045058      2.000000
 -0.156086  0.110370  0.000000      2.000000
 -0.026014 -0.183949  0.045058      2.000000
  0.130072  0.036790 -0.135174      2.000000
 -0.052029 -0.036790  0.180233      2.000000
 -0.078043  0.331109 -0.135174      2.000000
  0.052029 -0.183949  0.000000      2.000000
  0.234129 -0.110369 -0.045058      2.000000
 -0.260143 -0.183949  0.180233      2.000000
  0.078043  0.110370 -0.135174      2.000000
 -0.026014  0.257529 -0.045058      2.000000
  0.286158 -0.183949 -0.135174      2.000000
 -0.182100  0.036790  0.045058      2.000000
 -0.104057  0.091975  0.000000      2.000000
 -0.026014 -0.128764  0.045058      2.000000
  0.104057  0.018395 -0.090116      2.000000
 -0.026014 -0.018395  0.135174      2.000000
 -0.052029 -0.091975 -0.090116      2.000000
  0.052029 -0.128764  0.000000      2.000000
 -0.130072  0.018395 -0.045058      2.000000
 -0.026014 -0.018395 -0.135174      2.000000
  0.052029  0.091975 -0.090116      2.000000
 -0.026014 -0.128764 -0.045058      2.000000
 -0.104057 -0.018395 -0.090116      2.000000
 -0.130072  0.018395  0.045058      2.000000
 -0.052029  0.073580  0.000000      2.000000
 -0.026014 -0.073580  0.045058      2.000000
  0.078043  0.000000 -0.045058      2.000000
  0.000000  0.000000  0.090116      2.000000
 -0.026014 -0.073580 -0.045058      2.000000
 -0.078043 -0.000000 -0.045058      2.000000
  0.104057  0.073580  0.000000      2.000000
 -0.052029  0.073580  0.090116      2.000000
  0.052029 -0.073580  0.090116      2.000000
  0.156086  0.055185  0.000000      2.000000
 -0.052029  0.128764  0.090116      2.000000
  0.026014 -0.091975  0.135174      2.000000
  0.130072  0.091975 -0.045058      2.000000
  0.078043 -0.055185  0.135174      2.000000
  0.104057  0.128764  0.000000      2.000000
  0.104057 -0.091975 -0.090116      2.000000
  0.130072  0.091975  0.045058      2.000000
 -0.078043  0.055185  0.135174      2.000000
 -0.052029  0.128764 -0.090116      2.000000
 -0.026014  0.091975  0.135174      2.000000
  0.104057 -0.091975  0.090116      2.000000
  0.208115  0.036790  0.000000      2.000000
 -0.052029  0.183949  0.090116      2.000000
  0.000000 -0.110370  0.180233      2.000000
  0.156086  0.110370 -0.090116      2.000000
  0.104057 -0.036790  0.180233      2.000000
  0.104057  0.183949  0.000000      2.000000
  0.156086 -0.110370 -0.090116      2.000000
  0.156086  0.110370  0.090116      2.000000
 -0.104057  0.036790  0.180233      2.000000
 -0.052029  0.183949 -0.090116      2.000000
  0.000000  0.110370  0.180233      2.000000
  0.156086 -0.110370  0.090116      2.000000
 -0.156086  0.165554  0.000000      2.000000
 -0.052029 -0.202344  0.090116      2.000000
  0.182100  0.018395 -0.135174      2.000000
  0.182100  0.128764 -0.135174      2.000000
 -0.078043  0.275924 -0.135174      2.000000
  0.104057 -0.202344  0.000000      2.000000
  0.208115 -0.128764 -0.090116      2.000000
 -0.234129 -0.165554  0.135174      2.000000
  0.078043  0.165554 -0.135174      2.000000
 -0.052029  0.239134 -0.090116      2.000000
  0.234129 -0.165554 -0.135174      2.000000
 -0.208115  0.018395  0.090116      2.000000
 -0.104057  0.147159  0.000000      2.000000
 -0.052029 -0.147159  0.090116      2.000000
  0.156086  0.000000 -0.090116      2.000000
  0.000000  0.000000  0.180233      2.000000
 -0.052029  0.294319 -0.090116      2.000000
  0.260143 -0.147159 -0.090116      2.000000
  0.156086  0.110370  0.000000      2.000000
 -0.078043  0.110370  0.135174      2.000000
  0.078043 -0.110370  0.135174      2.000000
  0.208115  0.091975  0.000000      2.000000
 -0.078043  0.165554  0.135174      2.000000
  0.052029 -0.128764  0.180233      2.000000
  0.182100  0.128764 -0.045058      2.000000
  0.104057 -0.091975  0.180233      2.000000
  0.156086  0.165554  0.000000      2.000000
  0.130072 -0.128764 -0.135174      2.000000
  0.182100  0.128764  0.045058      2.000000
 -0.104057  0.091975  0.180233      2.000000
 -0.078043  0.165554 -0.135174      2.000000
 -0.052029  0.128764  0.180233      2.000000
  0.130072 -0.128764  0.135174      2.000000
 -0.156086  0.220739  0.000000      2.000000
 -0.078043 -0.220739  0.135174      2.000000
  0.234129  0.000000 -0.135174      2.000000
  0.208115  0.147159 -0.090116      2.000000
 -0.078043  0.220739 -0.135174      2.000000
  0.182100 -0.147159 -0.135174      2.000000
  0.208115  0.147159  0.000000      1.000000
 -0.104057  0.147159  0.180233      1.000000
  0.104057 -0.147159  0.180233      1.000000
  0.130072  0.036790  0.045058      2.000000
  0.000000  0.110370  0.090116      2.000000
  0.026014 -0.036790  0.135174      2.000000
  0.130072  0.036790 -0.045058      2.000000
  0.104057 -0.036790  0.090116      2.000000
  0.078043 -0.110370 -0.045058      2.000000
  0.078043  0.110370 -0.045058      2.000000
  0.104057 -0.036790 -0.090116      2.000000
  0.078043  0.110370  0.045058      2.000000
  0.000000  0.110370 -0.090116      2.000000
 -0.078043  0.110370 -0.045058      2.000000
 -0.026014  0.036790  0.135174      2.000000
  0.182100  0.018395  0.045058      2.000000
  0.000000  0.165554  0.090116      2.000000
  0.000000 -0.055185  0.180233      2.000000
  0.156086  0.055185 -0.090116      2.000000
  0.130072 -0.018395  0.135174      2.000000
  0.078043 -0.165554 -0.045058      2.000000
  0.078043  0.165554 -0.045058      2.000000
  0.156086 -0.055185 -0.090116      2.000000
 -0.260143 -0.128764  0.180233      2.000000
  0.104057  0.128764  0.090116      2.000000
  0.026014  0.128764 -0.135174      2.000000
 -0.130072  0.128764  0.045058      2.000000
 -0.130072  0.018395  0.135174      2.000000
 -0.078043  0.165554 -0.045058      2.000000
  0.260143 -0.202344 -0.090116      2.000000
  0.000000  0.055185  0.180233      2.000000
 -0.182100 -0.018395  0.045058      2.000000
  0.000000 -0.165554  0.090116      2.000000
  0.130072 -0.128764  0.045058      2.000000
 -0.104057 -0.128764  0.090116      2.000000
 -0.026014  0.312714 -0.135174      2.000000
  0.260143 -0.091975 -0.090116      2.000000
 -0.078043  0.275924 -0.045058      2.000000
 -0.156086 -0.165554  0.180233      2.000000
 -0.182100  0.147159  0.045058      2.000000
  0.000000 -0.220739  0.090116      2.000000
  0.182100  0.073580 -0.135174      2.000000
 -0.260143  0.147159  0.180233      2.000000
  0.078043  0.220739 -0.045058      2.000000
  0.208115 -0.073580 -0.090116      2.000000
  0.130072 -0.294319  0.135174      2.000000
 -0.156086 -0.000000  0.180233      2.000000
 -0.078043  0.220739 -0.045058      2.000000
  0.234129  0.220739 -0.135174      2.000000
  0.182100 -0.147159  0.045058      2.000000
 -0.130072 -0.147159  0.135174      2.000000
  0.182100  0.073580  0.045058      2.000000
 -0.026014  0.147159  0.135174      2.000000
  0.052029 -0.073580  0.180233      2.000000
  0.182100  0.073580 -0.045058      2.000000
  0.130072 -0.073580  0.135174      2.000000
  0.104057 -0.147159 -0.090116      2.000000
  0.130072  0.147159 -0.045058      2.000000
  0.130072 -0.073580 -0.135174      2.000000
  0.130072  0.147159  0.045058      2.000000
 -0.026014  0.147159 -0.135174      2.000000
 -0.104057  0.147159 -0.090116      2.000000
 -0.052029  0.073580  0.180233      2.000000
 -0.182100  0.202344  0.045058      2.000000
 -0.026014 -0.239134  0.135174      2.000000
  0.234129  0.055185 -0.135174      2.000000
  0.208115  0.091975 -0.090116      2.000000
 -0.260143  0.091975  0.180233      2.000000
  0.104057  0.239134 -0.090116      2.000000
  0.130072  0.202344 -0.045058      2.000000
  0.182100 -0.091975 -0.135174      2.000000
  0.130072 -0.239134  0.135174      2.000000
  0.156086 -0.275924  0.090116      2.000000
 -0.208115  0.018395  0.180233      2.000000
 -0.156086  0.165554  0.090116      2.000000
 -0.156086  0.055185  0.180233      2.000000
 -0.104057  0.202344 -0.090116      2.000000
  0.208115  0.202344 -0.090116      2.000000
  0.182100  0.239134 -0.135174      2.000000
  0.182100 -0.202344  0.045058      2.000000
  0.026014 -0.202344  0.135174      2.000000
  0.156086 -0.165554  0.090116      2.000000
 -0.156086 -0.165554  0.090116      2.000000
 -0.208115  0.128764  0.180233      2.000000
  0.234129 -0.055185 -0.135174      2.000000
 -0.130072  0.239134 -0.045058      2.000000
 -0.130072 -0.202344  0.135174      2.000000
 -0.130072  0.183949  0.045058      2.000000
 -0.026014 -0.183949  0.135174      2.000000
  0.208115  0.036790 -0.090116      2.000000
  0.234129  0.110370 -0.135174      2.000000
 -0.026014  0.257529 -0.135174      2.000000
  0.104057  0.183949 -0.090116      2.000000
  0.234129 -0.110369 -0.135174      2.000000
  0.104057 -0.257529  0.090116      2.000000
 -0.182100  0.036790  0.135174      2.000000
 -0.208115  0.183949  0.090116      2.000000
  0.182100  0.183949 -0.135174      2.000000
  0.130072 -0.183949  0.045058      2.000000
 -0.182100  0.257529  0.045058      2.000000
 -0.052029 -0.257529  0.180233      2.000000
  0.286158  0.036790 -0.135174      2.000000
  0.234129  0.110370 -0.045058      2.000000
 -0.260143  0.036790  0.180233      2.000000
  0.130072  0.257529 -0.135174      2.000000
 -0.156086  0.220739  0.090116      2.000000
  0.000000 -0.220739  0.180233      2.000000
  0.260143  0.073580 -0.090116      2.000000
 


--------------------------------------------------------------------------------------------------------




 Dimension of arrays:
   k-points           NKPTS =    260   k-points in BZ     NKDIM =    260   number of bands    NBANDS=     12
   number of dos      NEDOS =    301   number of ions     NIONS =      1
   non local maximal  LDIM  =      6   non local SUM 2l+1 LMDIM =     18
   total plane-waves  NPLWV =   1728
   max r-space proj   IRMAX =      1   max aug-charges    IRDMAX=   7131
   dimension x,y,z NGX =    12 NGY =   12 NGZ =   12
   dimension x,y,z NGXF=    24 NGYF=   24 NGZF=   24
   support grid    NGXF=    24 NGYF=   24 NGZF=   24
   ions per type =               1
   NGX,Y,Z   is equivalent  to a cutoff of   7.19,  7.19,  7.19 a.u.
   NGXF,Y,Z  is equivalent  to a cutoff of  14.38, 14.38, 14.38 a.u.

 SYSTEM =  unknown system                          
 POSCAR =  Pt1                                     

 Startparameter for this run:
   NWRITE =      2    write-flag & timer
   PREC   = normal    normal or accurate (medium, high low for compatibility)
   ISTART =      0    job   : 0-new  1-cont  2-samecut
   ICHARG =      2    charge: 1-file 2-atom 10-const
   ISPIN  =      1    spin polarized calculation?
   LNONCOLLINEAR =      F non collinear calculations
   LSORBIT =      F    spin-orbit coupling
   INIWAV =      1    electr: 0-lowe 1-rand  2-diag
   LASPH  =      F    aspherical Exc in radial PAW
   METAGGA=      F    non-selfconsistent MetaGGA calc.

 Electronic Relaxation 1
   ENCUT  =  320.0 eV  23.52 Ry    4.85 a.u.   4.05  4.05  4.05*2*pi/ulx,y,z
   ENINI  =  320.0     initial cutoff
   ENAUG  =  359.0 eV  augmentation charge cutoff
   NELM   =     60;   NELMIN=  4; NELMDL= -5     # of ELM steps 
   EDIFF  = 0.1E-03   stopping-criterion for ELM
   LREAL  =      F    real-space projection
   NLSPLINE    = F    spline interpolate recip. space projectors
   LCOMPAT=      F    compatible to vasp.4.4
   GGA_COMPAT  = T    GGA compatible to vasp.4.4-vasp.4.6
   LMAXPAW     = -100 max onsite density
   LMAXMIX     =    2 max onsite mixed and CHGCAR
   VOSKOWN=      0    Vosko Wilk Nusair interpolation
   ROPT   =    0.00000
 Ionic relaxation
   EDIFFG = -.3E-01   stopping-criterion for IOM
   NSW    =      0    number of steps for IOM
   NBLOCK =      1;   KBLOCK =      1    inner block; outer block 
   IBRION =     -1    ionic relax: 0-MD 1-quasi-New 2-CG
   NFREE  =      1    steps in history (QN), initial steepest desc. (CG)
   ISIF   =      0    stress and relaxation
   IWAVPR =     10    prediction:  0-non 1-charg 2-wave 3-comb
   ISYM   =      0    0-nonsym 1-usesym 2-fastsym
   LCORR  =      T    Harris-Foulkes like correction to forces

   POTIM  = 0.5000    time-step for ionic-motion
   TEIN   =    0.0    initial temperature
   TEBEG  =    0.0;   TEEND  =   0.0 temperature during run
   SMASS  =  -3.00    Nose mass-parameter (am)
   estimated Nose-frequenzy (Omega)   =  0.10E-29 period in steps = 0.13E+47 mass=  -0.176E-27a.u.
   SCALEE = 1.0000    scale energy and forces
   NPACO  =    256;   APACO  = 16.0  distance and # of slots for P.C.
   PSTRESS=    0.0 pullay stress

  Mass of Ions in am
   POMASS = 195.08
  Ionic Valenz
   ZVAL   =  10.00
  Atomic Wigner-Seitz radii
   RWIGS  =  -1.00
  virtual crystal weights 
   VCA    =   1.00
   NELECT =      10.0000    total number of electrons
   NUPDOWN=      -1.0000    fix difference up-down

 DOS related values:
   EMIN   =  10.00;   EMAX   =-10.00  energy-range for DOS
   EFERMI =   0.00
   ISMEAR =     0;   SIGMA  =   0.05  broadening in eV -4-tet -1-fermi 0-gaus

 Electronic relaxation 2 (details)
   IALGO  =     38    algorithm
   LDIAG  =      T    sub-space diagonalisation (order eigenvalues)
   LSUBROT=      F    optimize rotation matrix (better conditioning)
   TURBO    =      0    0=normal 1=particle mesh
   IRESTART =      0    0=no restart 2=restart with 2 vectors
   NREBOOT  =      0    no. of reboots
   NMIN     =      0    reboot dimension
   EREF     =   0.00    reference energy to select bands
   IMIX   =      4    mixing-type and parameters
     AMIX     =   0.40;   BMIX     =  1.00
     AMIX_MAG =   1.60;   BMIX_MAG =  1.00
     AMIN     =   0.10
     WC   =   100.;   INIMIX=   1;  MIXPRE=   1;  MAXMIX= -45

 Intra band minimization:
   WEIMIN = 0.0000     energy-eigenvalue tresh-hold
   EBREAK =  0.21E-05  absolut break condition
   DEPER  =   0.30     relativ break condition  

   TIME   =   0.40     timestep for ELM

  volume/ion in A,a.u.               =      15.10       101.88
  Fermi-wavevector in a.u.,A,eV,Ry     =   1.427064  2.696759 27.708406  2.036510
  Thomas-Fermi vector in A             =   2.547273
 
 Write flags
   LWAVE        =      F    write WAVECAR
   LDOWNSAMPLE  =      F    k-point downsampling of WAVECAR
   LCHARG       =      T    write CHGCAR
   LVTOT        =      F    write LOCPOT, total local potential
   LVHAR        =      F    write LOCPOT, Hartree potential only
   LELF         =      F    write electronic localiz. function (ELF)
   LORBIT       =     11    0 simple, 1 ext, 2 COOP (PROOUT), +10 PAW based schemes


 Dipole corrections
   LMONO  =      F    monopole corrections only (constant potential shift)
   LDIPOL =      F    correct potential (dipole corrections)
   IDIPOL =      0    1-x, 2-y, 3-z, 4-all directions 
   EPSILON=  1.0000000 bulk dielectric constant

 Exchange correlation treatment:
   GGA     =    RP    GGA type
   LEXCH   =     9    internal setting for exchange type
   VOSKOWN=      0    Vosko Wilk Nusair interpolation
   LHFCALC =     F    Hartree Fock is set to
   LHFONE  =     F    Hartree Fock one center treatment
   AEXX    =    0.0000 exact exchange contribution

 Linear response parameters
   LEPSILON=     F    determine dielectric tensor
   LRPA    =     F    only Hartree local field effects (RPA)
   LNABLA  =     F    use nabla operator in PAW spheres
   LVEL    =     F    velocity operator in full k-point grid
   LINTERFAST=   F  fast interpolation
   KINTER  =     0    interpolate to denser k-point grid
   CSHIFT  =0.1000    complex shift for real part using Kramers Kronig
   OMEGAMAX=  -1.0    maximum frequency
   DEG_THRESHOLD= 0.2000000E-02 threshold for treating states as degnerate
   RTIME   =   -0.100 relaxation time in fs
  (WPLASMAI=    0.000 imaginary part of plasma frequency in eV, 0.658/RTIME)
   DFIELD  = 0.0000000 0.0000000 0.0000000 field for delta impulse in time
 
 Orbital magnetization related:
   ORBITALMAG=     F  switch on orbital magnetization
   LCHIMAG   =     F  perturbation theory with respect to B field
   DQ        =  0.001000  dq finite difference perturbation B field
   LLRAUG    =     F  two centre corrections for induced B field



--------------------------------------------------------------------------------------------------------


 Static calculation
 charge density and potential will be updated during run
 non-spin polarized calculation
 Variant of blocked Davidson
 Davidson routine will perform the subspace rotation
 perform sub-space diagonalisation
    after iterative eigenvector-optimisation
 modified Broyden-mixing scheme, WC =      100.0
 initial mixing is a Kerker type mixing with AMIX =  0.4000 and BMIX =      1.0000
 Hartree-type preconditioning will be used
 using additional bands             7
 reciprocal scheme for non local part
 use partial core corrections
 calculate Harris-corrections to forces 
   (improved forces if not selfconsistent)
 use gradient corrections 
 use of overlap-Matrix (Vanderbilt PP)
 Gauss-broadening in eV      SIGMA  =   0.05


--------------------------------------------------------------------------------------------------------


  energy-cutoff  :      320.00
  volume of cell :       15.10
      direct lattice vectors                 reciprocal lattice vectors
     2.402521000  0.000000000  1.387096000     0.416229452 -0.147159307  0.000000000
     0.800840000  2.265118000  1.387096000     0.000000000  0.441478104  0.000000000
     0.000000000  0.000000000  2.774192000    -0.208114726 -0.147159399  0.360465317

  length of vectors
     2.774192219  2.774191697  2.774192000     0.441477993  0.441478104  0.441478055


 
 k-points in units of 2pi/SCALE and weight: Automatic kpoint scheme                 
   0.00000000  0.00000000  0.00000000       0.002
   0.05202868 -0.01839491  0.00000000       0.004
   0.00000000  0.05518476  0.00000000       0.004
  -0.02601434 -0.01839492  0.04505816       0.004
   0.02601434  0.01839492  0.04505816       0.004
   0.10405736 -0.03678983  0.00000000       0.004
   0.00000000  0.11036953  0.00000000       0.004
  -0.05202868 -0.03678985  0.09011633       0.004
   0.05202868  0.03678985  0.09011633       0.004
   0.15608604 -0.05518474  0.00000000       0.004
   0.00000000  0.16555429  0.00000000       0.004
  -0.07804302 -0.05518477  0.13517449       0.004
   0.07804302  0.05518477  0.13517449       0.004
   0.20811473 -0.07357965  0.00000000       0.002
   0.00000000  0.22073905  0.00000000       0.002
  -0.10405736 -0.07357970  0.18023266       0.002
   0.10405736  0.07357970  0.18023266       0.002
   0.05202868  0.03678985  0.00000000       0.004
  -0.02601434  0.03678984  0.04505816       0.004
   0.02601434 -0.03678984  0.04505816       0.004
   0.10405736  0.01839494  0.00000000       0.004
  -0.02601434  0.09197460  0.04505816       0.004
   0.00000000 -0.05518476  0.09011633       0.004
   0.07804302  0.05518477 -0.04505816       0.004
   0.05202868 -0.01839491  0.09011633       0.004
   0.05202868  0.09197461  0.00000000       0.004
   0.07804302 -0.05518475 -0.04505816       0.004
   0.07804302  0.05518477  0.04505816       0.004
  -0.05202868  0.01839491  0.09011633       0.004
  -0.02601434  0.09197460 -0.04505816       0.004
   0.00000000  0.05518476  0.09011633       0.004
   0.07804302 -0.05518475  0.04505816       0.004
   0.15608604  0.00000002  0.00000000       0.004
  -0.02601434  0.14715936  0.04505816       0.004
  -0.02601434 -0.07357969  0.13517449       0.004
   0.10405736  0.07357970 -0.09011633       0.004
   0.07804302  0.00000001  0.13517449       0.004
   0.05202868  0.14715938  0.00000000       0.004
   0.13007170 -0.07357966 -0.04505816       0.004
   0.10405736  0.07357970  0.09011633       0.004
  -0.07804302 -0.00000001  0.13517449       0.004
  -0.02601434  0.14715936 -0.04505816       0.004
   0.02601434  0.07357969  0.13517449       0.004
   0.13007170 -0.07357966  0.04505816       0.004
   0.20811473 -0.01839489  0.00000000       0.004
  -0.02601434  0.20234413  0.04505816       0.004
  -0.05202868 -0.09197461  0.18023266       0.004
   0.13007170  0.09197462 -0.13517449       0.004
   0.10405736  0.01839494  0.18023266       0.004
   0.05202868  0.20234414  0.00000000       0.004
   0.18210039 -0.09197458 -0.04505816       0.004
   0.13007170  0.09197462  0.13517449       0.004
  -0.10405736 -0.01839494  0.18023266       0.004
  -0.02601434  0.20234413 -0.04505816       0.004
   0.05202868  0.09197461  0.18023266       0.004
   0.18210039 -0.09197458  0.04505816       0.004
  -0.15608604  0.11036950  0.00000000       0.004
  -0.02601434 -0.18394921  0.04505816       0.004
   0.13007170  0.03678986 -0.13517449       0.004
  -0.05202868 -0.03678985  0.18023266       0.004
  -0.07804302  0.33110857 -0.13517449       0.004
   0.05202868 -0.18394920  0.00000000       0.004
   0.23412907 -0.11036949 -0.04505816       0.004
  -0.26014341 -0.18394925  0.18023266       0.004
   0.07804302  0.11036954 -0.13517449       0.004
  -0.02601434  0.25752889 -0.04505816       0.004
   0.28615775 -0.18394917 -0.13517449       0.004
  -0.18210039  0.03678982  0.04505816       0.004
  -0.10405736  0.09197459  0.00000000       0.004
  -0.02601434 -0.12876445  0.04505816       0.004
   0.10405736  0.01839494 -0.09011633       0.004
  -0.02601434 -0.01839492  0.13517449       0.004
  -0.05202868 -0.09197461 -0.09011633       0.004
   0.05202868 -0.12876444  0.00000000       0.004
  -0.13007170  0.01839490 -0.04505816       0.004
  -0.02601434 -0.01839492 -0.13517449       0.004
   0.05202868  0.09197461 -0.09011633       0.004
  -0.02601434 -0.12876445 -0.04505816       0.004
  -0.10405736 -0.01839494 -0.09011633       0.004
  -0.13007170  0.01839490  0.04505816       0.004
  -0.05202868  0.07357968  0.00000000       0.004
  -0.02601434 -0.07357969  0.04505816       0.004
   0.07804302  0.00000001 -0.04505816       0.004
   0.00000000  0.00000000  0.09011633       0.004
  -0.02601434 -0.07357969 -0.04505816       0.004
  -0.07804302 -0.00000001 -0.04505816       0.004
   0.10405736  0.07357970  0.00000000       0.004
  -0.05202868  0.07357968  0.09011633       0.004
   0.05202868 -0.07357968  0.09011633       0.004
   0.15608604  0.05518479  0.00000000       0.004
  -0.05202868  0.12876444  0.09011633       0.004
   0.02601434 -0.09197460  0.13517449       0.004
   0.13007170  0.09197462 -0.04505816       0.004
   0.07804302 -0.05518475  0.13517449       0.004
   0.10405736  0.12876446  0.00000000       0.004
   0.10405736 -0.09197459 -0.09011633       0.004
   0.13007170  0.09197462  0.04505816       0.004
  -0.07804302  0.05518475  0.13517449       0.004
  -0.05202868  0.12876444 -0.09011633       0.004
  -0.02601434  0.09197460  0.13517449       0.004
   0.10405736 -0.09197459  0.09011633       0.004
   0.20811473  0.03678987  0.00000000       0.004
  -0.05202868  0.18394920  0.09011633       0.004
   0.00000000 -0.11036953  0.18023266       0.004
   0.15608604  0.11036955 -0.09011633       0.004
   0.10405736 -0.03678983  0.18023266       0.004
   0.10405736  0.18394923  0.00000000       0.004
   0.15608604 -0.11036950 -0.09011633       0.004
   0.15608604  0.11036955  0.09011633       0.004
  -0.10405736  0.03678983  0.18023266       0.004
  -0.05202868  0.18394920 -0.09011633       0.004
   0.00000000  0.11036953  0.18023266       0.004
   0.15608604 -0.11036950  0.09011633       0.004
  -0.15608604  0.16555427  0.00000000       0.004
  -0.05202868 -0.20234414  0.09011633       0.004
   0.18210039  0.01839495 -0.13517449       0.004
   0.18210039  0.12876447 -0.13517449       0.004
  -0.07804302  0.27592380 -0.13517449       0.004
   0.10405736 -0.20234412  0.00000000       0.004
   0.20811473 -0.12876442 -0.09011633       0.004
  -0.23412907 -0.16555432  0.13517449       0.004
   0.07804302  0.16555430 -0.13517449       0.004
  -0.05202868  0.23913397 -0.09011633       0.004
   0.23412907 -0.16555425 -0.13517449       0.004
  -0.20811473  0.01839489  0.09011633       0.004
  -0.10405736  0.14715935  0.00000000       0.004
  -0.05202868 -0.14715938  0.09011633       0.004
   0.15608604  0.00000002 -0.09011633       0.004
   0.00000000  0.00000000  0.18023266       0.004
  -0.05202868  0.29431873 -0.09011633       0.004
   0.26014341 -0.14715933 -0.09011633       0.004
   0.15608604  0.11036955  0.00000000       0.004
  -0.07804302  0.11036951  0.13517449       0.004
   0.07804302 -0.11036951  0.13517449       0.004
   0.20811473  0.09197464  0.00000000       0.004
  -0.07804302  0.16555428  0.13517449       0.004
   0.05202868 -0.12876444  0.18023266       0.004
   0.18210039  0.12876447 -0.04505816       0.004
   0.10405736 -0.09197459  0.18023266       0.004
   0.15608604  0.16555431  0.00000000       0.004
   0.13007170 -0.12876443 -0.13517449       0.004
   0.18210039  0.12876447  0.04505816       0.004
  -0.10405736  0.09197459  0.18023266       0.004
  -0.07804302  0.16555428 -0.13517449       0.004
  -0.05202868  0.12876444  0.18023266       0.004
   0.13007170 -0.12876443  0.13517449       0.004
  -0.15608604  0.22073903  0.00000000       0.004
  -0.07804302 -0.22073906  0.13517449       0.004
   0.23412907  0.00000003 -0.13517449       0.004
   0.20811473  0.14715940 -0.09011633       0.004
  -0.07804302  0.22073904 -0.13517449       0.004
   0.18210039 -0.14715934 -0.13517449       0.004
   0.20811473  0.14715940  0.00000000       0.002
  -0.10405736  0.14715935  0.18023266       0.002
   0.10405736 -0.14715935  0.18023266       0.002
   0.13007170  0.03678986  0.04505816       0.004
   0.00000000  0.11036953  0.09011633       0.004
   0.02601434 -0.03678984  0.13517449       0.004
   0.13007170  0.03678986 -0.04505816       0.004
   0.10405736 -0.03678983  0.09011633       0.004
   0.07804302 -0.11036951 -0.04505816       0.004
   0.07804302  0.11036954 -0.04505816       0.004
   0.10405736 -0.03678983 -0.09011633       0.004
   0.07804302  0.11036954  0.04505816       0.004
   0.00000000  0.11036953 -0.09011633       0.004
  -0.07804302  0.11036951 -0.04505816       0.004
  -0.02601434  0.03678984  0.13517449       0.004
   0.18210039  0.01839495  0.04505816       0.004
   0.00000000  0.16555429  0.09011633       0.004
   0.00000000 -0.05518476  0.18023266       0.004
   0.15608604  0.05518479 -0.09011633       0.004
   0.13007170 -0.01839490  0.13517449       0.004
   0.07804302 -0.16555428 -0.04505816       0.004
   0.07804302  0.16555430 -0.04505816       0.004
   0.15608604 -0.05518474 -0.09011633       0.004
  -0.26014341 -0.12876449  0.18023266       0.004
   0.10405736  0.12876446  0.09011633       0.004
   0.02601434  0.12876445 -0.13517449       0.004
  -0.13007170  0.12876443  0.04505816       0.004
  -0.13007170  0.01839490  0.13517449       0.004
  -0.07804302  0.16555428 -0.04505816       0.004
   0.26014341 -0.20234409 -0.09011633       0.004
   0.00000000  0.05518476  0.18023266       0.004
  -0.18210039 -0.01839495  0.04505816       0.004
   0.00000000 -0.16555429  0.09011633       0.004
   0.13007170 -0.12876443  0.04505816       0.004
  -0.10405736 -0.12876446  0.09011633       0.004
  -0.02601434  0.31271365 -0.13517449       0.004
   0.26014341 -0.09197457 -0.09011633       0.004
  -0.07804302  0.27592380 -0.04505816       0.004
  -0.15608604 -0.16555431  0.18023266       0.004
  -0.18210039  0.14715934  0.04505816       0.004
   0.00000000 -0.22073905  0.09011633       0.004
   0.18210039  0.07357971 -0.13517449       0.004
  -0.26014341  0.14715933  0.18023266       0.004
   0.07804302  0.22073906 -0.04505816       0.004
   0.20811473 -0.07357965 -0.09011633       0.004
   0.13007170 -0.29431872  0.13517449       0.004
  -0.15608604 -0.00000002  0.18023266       0.004
  -0.07804302  0.22073904 -0.04505816       0.004
   0.23412907  0.22073909 -0.13517449       0.004
   0.18210039 -0.14715934  0.04505816       0.004
  -0.13007170 -0.14715939  0.13517449       0.004
   0.18210039  0.07357971  0.04505816       0.004
  -0.02601434  0.14715936  0.13517449       0.004
   0.05202868 -0.07357968  0.18023266       0.004
   0.18210039  0.07357971 -0.04505816       0.004
   0.13007170 -0.07357966  0.13517449       0.004
   0.10405736 -0.14715935 -0.09011633       0.004
   0.13007170  0.14715939 -0.04505816       0.004
   0.13007170 -0.07357966 -0.13517449       0.004
   0.13007170  0.14715939  0.04505816       0.004
  -0.02601434  0.14715936 -0.13517449       0.004
  -0.10405736  0.14715935 -0.09011633       0.004
  -0.05202868  0.07357968  0.18023266       0.004
  -0.18210039  0.20234410  0.04505816       0.004
  -0.02601434 -0.23913398  0.13517449       0.004
   0.23412907  0.05518480 -0.13517449       0.004
   0.20811473  0.09197464 -0.09011633       0.004
  -0.26014341  0.09197457  0.18023266       0.004
   0.10405736  0.23913399 -0.09011633       0.004
   0.13007170  0.20234415 -0.04505816       0.004
   0.18210039 -0.09197458 -0.13517449       0.004
   0.13007170 -0.23913395  0.13517449       0.004
   0.15608604 -0.27592379  0.09011633       0.004
  -0.20811473  0.01839489  0.18023266       0.004
  -0.15608604  0.16555427  0.09011633       0.004
  -0.15608604  0.05518474  0.18023266       0.004
  -0.10405736  0.20234412 -0.09011633       0.004
   0.20811473  0.20234416 -0.09011633       0.004
   0.18210039  0.23913400 -0.13517449       0.004
   0.18210039 -0.20234410  0.04505816       0.004
   0.02601434 -0.20234413  0.13517449       0.004
   0.15608604 -0.16555427  0.09011633       0.004
  -0.15608604 -0.16555431  0.09011633       0.004
  -0.20811473  0.12876442  0.18023266       0.004
   0.23412907 -0.05518473 -0.13517449       0.004
  -0.13007170  0.23913395 -0.04505816       0.004
  -0.13007170 -0.20234415  0.13517449       0.004
  -0.13007170  0.18394919  0.04505816       0.004
  -0.02601434 -0.18394921  0.13517449       0.004
   0.20811473  0.03678987 -0.09011633       0.004
   0.23412907  0.11036956 -0.13517449       0.004
  -0.02601434  0.25752889 -0.13517449       0.004
   0.10405736  0.18394923 -0.09011633       0.004
   0.23412907 -0.11036949 -0.13517449       0.004
   0.10405736 -0.25752888  0.09011633       0.004
  -0.18210039  0.03678982  0.13517449       0.004
  -0.20811473  0.18394918  0.09011633       0.004
   0.18210039  0.18394924 -0.13517449       0.004
   0.13007170 -0.18394919  0.04505816       0.004
  -0.18210039  0.25752887  0.04505816       0.004
  -0.05202868 -0.25752890  0.18023266       0.004
   0.28615775  0.03678988 -0.13517449       0.004
   0.23412907  0.11036956 -0.04505816       0.004
  -0.26014341  0.03678980  0.18023266       0.004
   0.13007170  0.25752891 -0.13517449       0.004
  -0.15608604  0.22073903  0.09011633       0.004
   0.00000000 -0.22073905  0.18023266       0.004
   0.26014341  0.07357972 -0.09011633       0.004
 
 k-points in reciprocal lattice and weights: Automatic kpoint scheme                 
   0.00000000  0.00000000  0.00000000       0.002
   0.12500000  0.00000000  0.00000000       0.004
   0.00000000  0.12500000  0.00000000       0.004
   0.00000000  0.00000000  0.12500000       0.004
   0.12500000  0.12500000  0.12500000       0.004
   0.25000000  0.00000000  0.00000000       0.004
   0.00000000  0.25000000  0.00000000       0.004
   0.00000000  0.00000000  0.25000000       0.004
   0.25000000  0.25000000  0.25000000       0.004
   0.37500000  0.00000000  0.00000000       0.004
   0.00000000  0.37500000  0.00000000       0.004
   0.00000000  0.00000000  0.37500000       0.004
   0.37500000  0.37500000  0.37500000       0.004
   0.50000000  0.00000000  0.00000000       0.002
   0.00000000  0.50000000  0.00000000       0.002
   0.00000000  0.00000000  0.50000000       0.002
   0.50000000  0.50000000  0.50000000       0.002
   0.12500000  0.12500000  0.00000000       0.004
   0.00000000  0.12500000  0.12500000       0.004
   0.12500000  0.00000000  0.12500000       0.004
   0.25000000  0.12500000  0.00000000       0.004
   0.00000000  0.25000000  0.12500000       0.004
   0.12500000  0.00000000  0.25000000       0.004
   0.12500000  0.12500000 -0.12500000       0.004
   0.25000000  0.12500000  0.25000000       0.004
   0.12500000  0.25000000  0.00000000       0.004
   0.12500000 -0.12500000 -0.12500000       0.004
   0.25000000  0.25000000  0.12500000       0.004
   0.00000000  0.12500000  0.25000000       0.004
  -0.12500000  0.12500000 -0.12500000       0.004
   0.12500000  0.25000000  0.25000000       0.004
   0.25000000  0.00000000  0.12500000       0.004
   0.37500000  0.12500000  0.00000000       0.004
   0.00000000  0.37500000  0.12500000       0.004
   0.12500000  0.00000000  0.37500000       0.004
   0.12500000  0.12500000 -0.25000000       0.004
   0.37500000  0.25000000  0.37500000       0.004
   0.12500000  0.37500000  0.00000000       0.004
   0.25000000 -0.12500000 -0.12500000       0.004
   0.37500000  0.37500000  0.25000000       0.004
   0.00000000  0.12500000  0.37500000       0.004
  -0.12500000  0.25000000 -0.12500000       0.004
   0.25000000  0.37500000  0.37500000       0.004
   0.37500000  0.00000000  0.12500000       0.004
   0.50000000  0.12500000  0.00000000       0.004
   0.00000000  0.50000000  0.12500000       0.004
   0.12500000  0.00000000  0.50000000       0.004
   0.12500000  0.12500000 -0.37500000       0.004
   0.50000000  0.37500000  0.50000000       0.004
   0.12500000  0.50000000  0.00000000       0.004
   0.37500000 -0.12500000 -0.12500000       0.004
   0.50000000  0.50000000  0.37500000       0.004
   0.00000000  0.12500000  0.50000000       0.004
  -0.12500000  0.37500000 -0.12500000       0.004
   0.37500000  0.50000000  0.50000000       0.004
   0.50000000  0.00000000  0.12500000       0.004
  -0.37500000  0.12500000  0.00000000       0.004
   0.00000000 -0.37500000  0.12500000       0.004
   0.12500000  0.00000000 -0.37500000       0.004
   0.12500000  0.12500000  0.50000000       0.004
  -0.37500000  0.50000000 -0.37500000       0.004
   0.12500000 -0.37500000  0.00000000       0.004
   0.50000000 -0.12500000 -0.12500000       0.004
  -0.37500000 -0.37500000  0.50000000       0.004
   0.00000000  0.12500000 -0.37500000       0.004
  -0.12500000  0.50000000 -0.12500000       0.004
   0.50000000 -0.37500000 -0.37500000       0.004
  -0.37500000  0.00000000  0.12500000       0.004
  -0.25000000  0.12500000  0.00000000       0.004
   0.00000000 -0.25000000  0.12500000       0.004
   0.12500000  0.00000000 -0.25000000       0.004
   0.12500000  0.12500000  0.37500000       0.004
  -0.25000000 -0.37500000 -0.25000000       0.004
   0.12500000 -0.25000000  0.00000000       0.004
  -0.37500000 -0.12500000 -0.12500000       0.004
  -0.25000000 -0.25000000 -0.37500000       0.004
   0.00000000  0.12500000 -0.25000000       0.004
  -0.12500000 -0.37500000 -0.12500000       0.004
  -0.37500000 -0.25000000 -0.25000000       0.004
  -0.25000000  0.00000000  0.12500000       0.004
  -0.12500000  0.12500000  0.00000000       0.004
   0.00000000 -0.12500000  0.12500000       0.004
   0.12500000  0.00000000 -0.12500000       0.004
   0.12500000  0.12500000  0.25000000       0.004
  -0.12500000 -0.25000000 -0.12500000       0.004
  -0.25000000 -0.12500000 -0.12500000       0.004
   0.25000000  0.25000000  0.00000000       0.004
   0.00000000  0.25000000  0.25000000       0.004
   0.25000000  0.00000000  0.25000000       0.004
   0.37500000  0.25000000  0.00000000       0.004
   0.00000000  0.37500000  0.25000000       0.004
   0.25000000  0.00000000  0.37500000       0.004
   0.25000000  0.25000000 -0.12500000       0.004
   0.37500000  0.12500000  0.37500000       0.004
   0.25000000  0.37500000  0.00000000       0.004
   0.12500000 -0.25000000 -0.25000000       0.004
   0.37500000  0.37500000  0.12500000       0.004
   0.00000000  0.25000000  0.37500000       0.004
  -0.25000000  0.12500000 -0.25000000       0.004
   0.12500000  0.37500000  0.37500000       0.004
   0.37500000  0.00000000  0.25000000       0.004
   0.50000000  0.25000000  0.00000000       0.004
   0.00000000  0.50000000  0.25000000       0.004
   0.25000000  0.00000000  0.50000000       0.004
   0.25000000  0.25000000 -0.25000000       0.004
   0.50000000  0.25000000  0.50000000       0.004
   0.25000000  0.50000000  0.00000000       0.004
   0.25000000 -0.25000000 -0.25000000       0.004
   0.50000000  0.50000000  0.25000000       0.004
   0.00000000  0.25000000  0.50000000       0.004
  -0.25000000  0.25000000 -0.25000000       0.004
   0.25000000  0.50000000  0.50000000       0.004
   0.50000000  0.00000000  0.25000000       0.004
  -0.37500000  0.25000000  0.00000000       0.004
   0.00000000 -0.37500000  0.25000000       0.004
   0.25000000  0.00000000 -0.37500000       0.004
   0.25000000  0.25000000 -0.37500000       0.004
  -0.37500000  0.37500000 -0.37500000       0.004
   0.25000000 -0.37500000  0.00000000       0.004
   0.37500000 -0.25000000 -0.25000000       0.004
  -0.37500000 -0.37500000  0.37500000       0.004
   0.00000000  0.25000000 -0.37500000       0.004
  -0.25000000  0.37500000 -0.25000000       0.004
   0.37500000 -0.37500000 -0.37500000       0.004
  -0.37500000  0.00000000  0.25000000       0.004
  -0.25000000  0.25000000  0.00000000       0.004
   0.00000000 -0.25000000  0.25000000       0.004
   0.25000000  0.00000000 -0.25000000       0.004
   0.25000000  0.25000000  0.50000000       0.004
  -0.25000000  0.50000000 -0.25000000       0.004
   0.50000000 -0.25000000 -0.25000000       0.004
   0.37500000  0.37500000  0.00000000       0.004
   0.00000000  0.37500000  0.37500000       0.004
   0.37500000  0.00000000  0.37500000       0.004
   0.50000000  0.37500000  0.00000000       0.004
   0.00000000  0.50000000  0.37500000       0.004
   0.37500000  0.00000000  0.50000000       0.004
   0.37500000  0.37500000 -0.12500000       0.004
   0.50000000  0.12500000  0.50000000       0.004
   0.37500000  0.50000000  0.00000000       0.004
   0.12500000 -0.37500000 -0.37500000       0.004
   0.50000000  0.50000000  0.12500000       0.004
   0.00000000  0.37500000  0.50000000       0.004
  -0.37500000  0.12500000 -0.37500000       0.004
   0.12500000  0.50000000  0.50000000       0.004
   0.50000000  0.00000000  0.37500000       0.004
  -0.37500000  0.37500000  0.00000000       0.004
   0.00000000 -0.37500000  0.37500000       0.004
   0.37500000  0.00000000 -0.37500000       0.004
   0.37500000  0.37500000 -0.25000000       0.004
  -0.37500000  0.25000000 -0.37500000       0.004
   0.25000000 -0.37500000 -0.37500000       0.004
   0.50000000  0.50000000  0.00000000       0.002
   0.00000000  0.50000000  0.50000000       0.002
   0.50000000  0.00000000  0.50000000       0.002
   0.37500000  0.25000000  0.12500000       0.004
   0.12500000  0.37500000  0.25000000       0.004
   0.25000000  0.12500000  0.37500000       0.004
   0.25000000  0.12500000 -0.12500000       0.004
   0.37500000  0.12500000  0.25000000       0.004
   0.12500000 -0.25000000 -0.12500000       0.004
   0.12500000  0.25000000 -0.12500000       0.004
   0.12500000 -0.12500000 -0.25000000       0.004
   0.25000000  0.37500000  0.12500000       0.004
  -0.12500000  0.12500000 -0.25000000       0.004
  -0.25000000  0.12500000 -0.12500000       0.004
   0.12500000  0.25000000  0.37500000       0.004
   0.50000000  0.25000000  0.12500000       0.004
   0.12500000  0.50000000  0.25000000       0.004
   0.25000000  0.12500000  0.50000000       0.004
   0.25000000  0.12500000 -0.25000000       0.004
   0.50000000  0.25000000  0.37500000       0.004
   0.12500000 -0.37500000 -0.12500000       0.004
   0.12500000  0.37500000 -0.12500000       0.004
   0.25000000 -0.12500000 -0.25000000       0.004
  -0.37500000 -0.25000000  0.50000000       0.004
   0.37500000  0.50000000  0.25000000       0.004
  -0.12500000  0.12500000 -0.37500000       0.004
  -0.25000000  0.25000000  0.12500000       0.004
  -0.12500000  0.12500000  0.37500000       0.004
  -0.25000000  0.25000000 -0.12500000       0.004
   0.50000000 -0.37500000 -0.25000000       0.004
   0.25000000  0.37500000  0.50000000       0.004
  -0.37500000 -0.12500000  0.12500000       0.004
   0.12500000 -0.25000000  0.25000000       0.004
   0.37500000 -0.12500000  0.12500000       0.004
  -0.12500000 -0.25000000  0.25000000       0.004
  -0.25000000  0.50000000 -0.37500000       0.004
   0.50000000 -0.12500000 -0.25000000       0.004
  -0.25000000  0.50000000 -0.12500000       0.004
  -0.12500000 -0.25000000  0.50000000       0.004
  -0.37500000  0.25000000  0.12500000       0.004
   0.12500000 -0.37500000  0.25000000       0.004
   0.25000000  0.12500000 -0.37500000       0.004
  -0.37500000  0.37500000  0.50000000       0.004
   0.12500000  0.50000000 -0.12500000       0.004
   0.37500000 -0.12500000 -0.25000000       0.004
   0.50000000 -0.37500000  0.37500000       0.004
  -0.12500000  0.12500000  0.50000000       0.004
  -0.25000000  0.37500000 -0.12500000       0.004
   0.37500000  0.50000000 -0.37500000       0.004
   0.50000000 -0.12500000  0.12500000       0.004
  -0.12500000 -0.25000000  0.37500000       0.004
   0.50000000  0.37500000  0.12500000       0.004
   0.12500000  0.50000000  0.37500000       0.004
   0.37500000  0.12500000  0.50000000       0.004
   0.37500000  0.25000000 -0.12500000       0.004
   0.50000000  0.12500000  0.37500000       0.004
   0.12500000 -0.37500000 -0.25000000       0.004
   0.25000000  0.37500000 -0.12500000       0.004
   0.12500000 -0.25000000 -0.37500000       0.004
   0.37500000  0.50000000  0.12500000       0.004
  -0.25000000  0.12500000 -0.37500000       0.004
  -0.37500000  0.12500000 -0.25000000       0.004
   0.12500000  0.37500000  0.50000000       0.004
  -0.37500000  0.37500000  0.12500000       0.004
   0.12500000 -0.37500000  0.37500000       0.004
   0.37500000  0.12500000 -0.37500000       0.004
   0.37500000  0.25000000 -0.25000000       0.004
  -0.37500000  0.25000000  0.50000000       0.004
   0.12500000  0.50000000 -0.25000000       0.004
   0.25000000  0.50000000 -0.12500000       0.004
   0.25000000 -0.25000000 -0.37500000       0.004
   0.50000000 -0.25000000  0.37500000       0.004
   0.50000000 -0.37500000  0.25000000       0.004
  -0.25000000  0.12500000  0.50000000       0.004
  -0.25000000  0.37500000  0.25000000       0.004
  -0.12500000  0.25000000  0.50000000       0.004
  -0.37500000  0.25000000 -0.25000000       0.004
   0.37500000  0.50000000 -0.25000000       0.004
   0.25000000  0.50000000 -0.37500000       0.004
   0.50000000 -0.25000000  0.12500000       0.004
   0.25000000 -0.25000000  0.37500000       0.004
   0.50000000 -0.12500000  0.25000000       0.004
  -0.25000000 -0.37500000  0.25000000       0.004
  -0.25000000  0.37500000  0.50000000       0.004
   0.37500000 -0.12500000 -0.37500000       0.004
  -0.37500000  0.37500000 -0.12500000       0.004
  -0.12500000 -0.37500000  0.37500000       0.004
  -0.25000000  0.37500000  0.12500000       0.004
   0.12500000 -0.25000000  0.37500000       0.004
   0.37500000  0.12500000 -0.25000000       0.004
   0.37500000  0.25000000 -0.37500000       0.004
  -0.25000000  0.37500000 -0.37500000       0.004
   0.12500000  0.37500000 -0.25000000       0.004
   0.37500000 -0.25000000 -0.37500000       0.004
   0.37500000 -0.37500000  0.25000000       0.004
  -0.25000000  0.12500000  0.37500000       0.004
  -0.37500000  0.37500000  0.25000000       0.004
   0.25000000  0.37500000 -0.37500000       0.004
   0.37500000 -0.25000000  0.12500000       0.004
  -0.37500000  0.50000000  0.12500000       0.004
   0.12500000 -0.37500000  0.50000000       0.004
   0.50000000  0.12500000 -0.37500000       0.004
   0.50000000  0.37500000 -0.12500000       0.004
  -0.37500000  0.12500000  0.50000000       0.004
   0.12500000  0.50000000 -0.37500000       0.004
  -0.25000000  0.50000000  0.25000000       0.004
   0.25000000 -0.25000000  0.50000000       0.004
   0.50000000  0.25000000 -0.25000000       0.004
 
 position of ions in fractional coordinates (direct lattice) 
   0.00000000  0.00000000  0.00000000
 
 position of ions in cartesian coordinates  (Angst):
   0.00000000  0.00000000  0.00000000
 


--------------------------------------------------------------------------------------------------------


 k-point   1 :   0.0000 0.0000 0.0000  plane waves:     181
 k-point   2 :   0.1250 0.0000 0.0000  plane waves:     178
 k-point   3 :   0.0000 0.1250 0.0000  plane waves:     178
 k-point   4 :   0.0000 0.0000 0.1250  plane waves:     178
 k-point   5 :   0.1250 0.1250 0.1250  plane waves:     178
 k-point   6 :   0.2500 0.0000 0.0000  plane waves:     193
 k-point   7 :   0.0000 0.2500 0.0000  plane waves:     193
 k-point   8 :   0.0000 0.0000 0.2500  plane waves:     193
 k-point   9 :   0.2500 0.2500 0.2500  plane waves:     193
 k-point  10 :   0.3750 0.0000 0.0000  plane waves:     198
 k-point  11 :   0.0000 0.3750 0.0000  plane waves:     198
 k-point  12 :   0.0000 0.0000 0.3750  plane waves:     198
 k-point  13 :   0.3750 0.3750 0.3750  plane waves:     198
 k-point  14 :   0.5000 0.0000 0.0000  plane waves:     180
 k-point  15 :   0.0000 0.5000 0.0000  plane waves:     180
 k-point  16 :   0.0000 0.0000 0.5000  plane waves:     180
 k-point  17 :   0.5000 0.5000 0.5000  plane waves:     180
 k-point  18 :   0.1250 0.1250 0.0000  plane waves:     185
 k-point  19 :   0.0000 0.1250 0.1250  plane waves:     185
 k-point  20 :   0.1250 0.0000 0.1250  plane waves:     185
 k-point  21 :   0.2500 0.1250 0.0000  plane waves:     196
 k-point  22 :   0.0000 0.2500 0.1250  plane waves:     196
 k-point  23 :   0.1250 0.0000 0.2500  plane waves:     196
 k-point  24 :   0.1250 0.1250-0.1250  plane waves:     196
 k-point  25 :   0.2500 0.1250 0.2500  plane waves:     196
 k-point  26 :   0.1250 0.2500 0.0000  plane waves:     196
 k-point  27 :   0.1250-0.1250-0.1250  plane waves:     196
 k-point  28 :   0.2500 0.2500 0.1250  plane waves:     196
 k-point  29 :   0.0000 0.1250 0.2500  plane waves:     196
 k-point  30 :  -0.1250 0.1250-0.1250  plane waves:     196
 k-point  31 :   0.1250 0.2500 0.2500  plane waves:     196
 k-point  32 :   0.2500 0.0000 0.1250  plane waves:     196
 k-point  33 :   0.3750 0.1250 0.0000  plane waves:     196
 k-point  34 :   0.0000 0.3750 0.1250  plane waves:     196
 k-point  35 :   0.1250 0.0000 0.3750  plane waves:     196
 k-point  36 :   0.1250 0.1250-0.2500  plane waves:     196
 k-point  37 :   0.3750 0.2500 0.3750  plane waves:     196
 k-point  38 :   0.1250 0.3750 0.0000  plane waves:     196
 k-point  39 :   0.2500-0.1250-0.1250  plane waves:     196
 k-point  40 :   0.3750 0.3750 0.2500  plane waves:     196
 k-point  41 :   0.0000 0.1250 0.3750  plane waves:     196
 k-point  42 :  -0.1250 0.2500-0.1250  plane waves:     196
 k-point  43 :   0.2500 0.3750 0.3750  plane waves:     196
 k-point  44 :   0.3750 0.0000 0.1250  plane waves:     196
 k-point  45 :   0.5000 0.1250 0.0000  plane waves:     196
 k-point  46 :   0.0000 0.5000 0.1250  plane waves:     196
 k-point  47 :   0.1250 0.0000 0.5000  plane waves:     196
 k-point  48 :   0.1250 0.1250-0.3750  plane waves:     196
 k-point  49 :   0.5000 0.3750 0.5000  plane waves:     196
 k-point  50 :   0.1250 0.5000 0.0000  plane waves:     196
 k-point  51 :   0.3750-0.1250-0.1250  plane waves:     196
 k-point  52 :   0.5000 0.5000 0.3750  plane waves:     196
 k-point  53 :   0.0000 0.1250 0.5000  plane waves:     196
 k-point  54 :  -0.1250 0.3750-0.1250  plane waves:     196
 k-point  55 :   0.3750 0.5000 0.5000  plane waves:     196
 k-point  56 :   0.5000 0.0000 0.1250  plane waves:     196
 k-point  57 :  -0.3750 0.1250 0.0000  plane waves:     197
 k-point  58 :   0.0000-0.3750 0.1250  plane waves:     197
 k-point  59 :   0.1250 0.0000-0.3750  plane waves:     197
 k-point  60 :   0.1250 0.1250 0.5000  plane waves:     197
 k-point  61 :  -0.3750 0.5000-0.3750  plane waves:     197
 k-point  62 :   0.1250-0.3750 0.0000  plane waves:     197
 k-point  63 :   0.5000-0.1250-0.1250  plane waves:     197
 k-point  64 :  -0.3750-0.3750 0.5000  plane waves:     197
 k-point  65 :   0.0000 0.1250-0.3750  plane waves:     197
 k-point  66 :  -0.1250 0.5000-0.1250  plane waves:     197
 k-point  67 :   0.5000-0.3750-0.3750  plane waves:     197
 k-point  68 :  -0.3750 0.0000 0.1250  plane waves:     197
 k-point  69 :  -0.2500 0.1250 0.0000  plane waves:     196
 k-point  70 :   0.0000-0.2500 0.1250  plane waves:     196
 k-point  71 :   0.1250 0.0000-0.2500  plane waves:     196
 k-point  72 :   0.1250 0.1250 0.3750  plane waves:     196
 k-point  73 :  -0.2500-0.3750-0.2500  plane waves:     196
 k-point  74 :   0.1250-0.2500 0.0000  plane waves:     196
 k-point  75 :  -0.3750-0.1250-0.1250  plane waves:     196
 k-point  76 :  -0.2500-0.2500-0.3750  plane waves:     196
 k-point  77 :   0.0000 0.1250-0.2500  plane waves:     196
 k-point  78 :  -0.1250-0.3750-0.1250  plane waves:     196
 k-point  79 :  -0.3750-0.2500-0.2500  plane waves:     196
 k-point  80 :  -0.2500 0.0000 0.1250  plane waves:     196
 k-point  81 :  -0.1250 0.1250 0.0000  plane waves:     186
 k-point  82 :   0.0000-0.1250 0.1250  plane waves:     186
 k-point  83 :   0.1250 0.0000-0.1250  plane waves:     186
 k-point  84 :   0.1250 0.1250 0.2500  plane waves:     186
 k-point  85 :  -0.1250-0.2500-0.1250  plane waves:     186
 k-point  86 :  -0.2500-0.1250-0.1250  plane waves:     186
 k-point  87 :   0.2500 0.2500 0.0000  plane waves:     202
 k-point  88 :   0.0000 0.2500 0.2500  plane waves:     202
 k-point  89 :   0.2500 0.0000 0.2500  plane waves:     202
 k-point  90 :   0.3750 0.2500 0.0000  plane waves:     198
 k-point  91 :   0.0000 0.3750 0.2500  plane waves:     198
 k-point  92 :   0.2500 0.0000 0.3750  plane waves:     198
 k-point  93 :   0.2500 0.2500-0.1250  plane waves:     198
 k-point  94 :   0.3750 0.1250 0.3750  plane waves:     198
 k-point  95 :   0.2500 0.3750 0.0000  plane waves:     198
 k-point  96 :   0.1250-0.2500-0.2500  plane waves:     198
 k-point  97 :   0.3750 0.3750 0.1250  plane waves:     198
 k-point  98 :   0.0000 0.2500 0.3750  plane waves:     198
 k-point  99 :  -0.2500 0.1250-0.2500  plane waves:     198
 k-point 100 :   0.1250 0.3750 0.3750  plane waves:     198
 k-point 101 :   0.3750 0.0000 0.2500  plane waves:     198
 k-point 102 :   0.5000 0.2500 0.0000  plane waves:     197
 k-point 103 :   0.0000 0.5000 0.2500  plane waves:     197
 k-point 104 :   0.2500 0.0000 0.5000  plane waves:     197
 k-point 105 :   0.2500 0.2500-0.2500  plane waves:     197
 k-point 106 :   0.5000 0.2500 0.5000  plane waves:     197
 k-point 107 :   0.2500 0.5000 0.0000  plane waves:     197
 k-point 108 :   0.2500-0.2500-0.2500  plane waves:     197
 k-point 109 :   0.5000 0.5000 0.2500  plane waves:     197
 k-point 110 :   0.0000 0.2500 0.5000  plane waves:     197
 k-point 111 :  -0.2500 0.2500-0.2500  plane waves:     197
 k-point 112 :   0.2500 0.5000 0.5000  plane waves:     197
 k-point 113 :   0.5000 0.0000 0.2500  plane waves:     197
 k-point 114 :  -0.3750 0.2500 0.0000  plane waves:     192
 k-point 115 :   0.0000-0.3750 0.2500  plane waves:     192
 k-point 116 :   0.2500 0.0000-0.3750  plane waves:     192
 k-point 117 :   0.2500 0.2500-0.3750  plane waves:     192
 k-point 118 :  -0.3750 0.3750-0.3750  plane waves:     192
 k-point 119 :   0.2500-0.3750 0.0000  plane waves:     192
 k-point 120 :   0.3750-0.2500-0.2500  plane waves:     192
 k-point 121 :  -0.3750-0.3750 0.3750  plane waves:     192
 k-point 122 :   0.0000 0.2500-0.3750  plane waves:     192
 k-point 123 :  -0.2500 0.3750-0.2500  plane waves:     192
 k-point 124 :   0.3750-0.3750-0.3750  plane waves:     192
 k-point 125 :  -0.3750 0.0000 0.2500  plane waves:     192
 k-point 126 :  -0.2500 0.2500 0.0000  plane waves:     196
 k-point 127 :   0.0000-0.2500 0.2500  plane waves:     196
 k-point 128 :   0.2500 0.0000-0.2500  plane waves:     196
 k-point 129 :   0.2500 0.2500 0.5000  plane waves:     196
 k-point 130 :  -0.2500 0.5000-0.2500  plane waves:     196
 k-point 131 :   0.5000-0.2500-0.2500  plane waves:     196
 k-point 132 :   0.3750 0.3750 0.0000  plane waves:     202
 k-point 133 :   0.0000 0.3750 0.3750  plane waves:     202
 k-point 134 :   0.3750 0.0000 0.3750  plane waves:     202
 k-point 135 :   0.5000 0.3750 0.0000  plane waves:     198
 k-point 136 :   0.0000 0.5000 0.3750  plane waves:     198
 k-point 137 :   0.3750 0.0000 0.5000  plane waves:     198
 k-point 138 :   0.3750 0.3750-0.1250  plane waves:     198
 k-point 139 :   0.5000 0.1250 0.5000  plane waves:     198
 k-point 140 :   0.3750 0.5000 0.0000  plane waves:     198
 k-point 141 :   0.1250-0.3750-0.3750  plane waves:     198
 k-point 142 :   0.5000 0.5000 0.1250  plane waves:     198
 k-point 143 :   0.0000 0.3750 0.5000  plane waves:     198
 k-point 144 :  -0.3750 0.1250-0.3750  plane waves:     198
 k-point 145 :   0.1250 0.5000 0.5000  plane waves:     198
 k-point 146 :   0.5000 0.0000 0.3750  plane waves:     198
 k-point 147 :  -0.3750 0.3750 0.0000  plane waves:     194
 k-point 148 :   0.0000-0.3750 0.3750  plane waves:     194
 k-point 149 :   0.3750 0.0000-0.3750  plane waves:     194
 k-point 150 :   0.3750 0.3750-0.2500  plane waves:     194
 k-point 151 :  -0.3750 0.2500-0.3750  plane waves:     194
 k-point 152 :   0.2500-0.3750-0.3750  plane waves:     194
 k-point 153 :   0.5000 0.5000 0.0000  plane waves:     190
 k-point 154 :   0.0000 0.5000 0.5000  plane waves:     190
 k-point 155 :   0.5000 0.0000 0.5000  plane waves:     190
 k-point 156 :   0.3750 0.2500 0.1250  plane waves:     194
 k-point 157 :   0.1250 0.3750 0.2500  plane waves:     194
 k-point 158 :   0.2500 0.1250 0.3750  plane waves:     194
 k-point 159 :   0.2500 0.1250-0.1250  plane waves:     194
 k-point 160 :   0.3750 0.1250 0.2500  plane waves:     194
 k-point 161 :   0.1250-0.2500-0.1250  plane waves:     194
 k-point 162 :   0.1250 0.2500-0.1250  plane waves:     194
 k-point 163 :   0.1250-0.1250-0.2500  plane waves:     194
 k-point 164 :   0.2500 0.3750 0.1250  plane waves:     194
 k-point 165 :  -0.1250 0.1250-0.2500  plane waves:     194
 k-point 166 :  -0.2500 0.1250-0.1250  plane waves:     194
 k-point 167 :   0.1250 0.2500 0.3750  plane waves:     194
 k-point 168 :   0.5000 0.2500 0.1250  plane waves:     196
 k-point 169 :   0.1250 0.5000 0.2500  plane waves:     196
 k-point 170 :   0.2500 0.1250 0.5000  plane waves:     196
 k-point 171 :   0.2500 0.1250-0.2500  plane waves:     196
 k-point 172 :   0.5000 0.2500 0.3750  plane waves:     196
 k-point 173 :   0.1250-0.3750-0.1250  plane waves:     196
 k-point 174 :   0.1250 0.3750-0.1250  plane waves:     196
 k-point 175 :   0.2500-0.1250-0.2500  plane waves:     196
 k-point 176 :  -0.3750-0.2500 0.5000  plane waves:     196
 k-point 177 :   0.3750 0.5000 0.2500  plane waves:     196
 k-point 178 :  -0.1250 0.1250-0.3750  plane waves:     196
 k-point 179 :  -0.2500 0.2500 0.1250  plane waves:     196
 k-point 180 :  -0.1250 0.1250 0.3750  plane waves:     196
 k-point 181 :  -0.2500 0.2500-0.1250  plane waves:     196
 k-point 182 :   0.5000-0.3750-0.2500  plane waves:     196
 k-point 183 :   0.2500 0.3750 0.5000  plane waves:     196
 k-point 184 :  -0.3750-0.1250 0.1250  plane waves:     196
 k-point 185 :   0.1250-0.2500 0.2500  plane waves:     196
 k-point 186 :   0.3750-0.1250 0.1250  plane waves:     196
 k-point 187 :  -0.1250-0.2500 0.2500  plane waves:     196
 k-point 188 :  -0.2500 0.5000-0.3750  plane waves:     196
 k-point 189 :   0.5000-0.1250-0.2500  plane waves:     196
[...]
      1       5.4628      2.00000
      2       6.0407      2.00000
      3       7.6042      2.00000
      4       9.6418      2.00000
      5      11.3504      0.04355
      6      16.6671      0.00000
      7      18.3873      0.00000
      8      22.5615      0.00000
      9      24.7572      0.00000
     10      32.8425      0.00000
     11      36.7091      0.00000
     12      39.1977      0.00000

 k-point   238 :      -0.3750    0.3750   -0.1250
  band No.  band energies     occupation 
      1       5.4628      2.00000
      2       6.0407      2.00000
      3       7.6042      2.00000
      4       9.6418      2.00000
      5      11.3504      0.04355
      6      16.6671      0.00000
      7      18.3873      0.00000
      8      22.5615      0.00000
      9      24.7572      0.00000
     10      32.8425      0.00000
     11      36.7091      0.00000
     12      39.1977      0.00000

 k-point   239 :      -0.1250   -0.3750    0.3750
  band No.  band energies     occupation 
      1       5.4628      2.00000
      2       6.0407      2.00000
      3       7.6042      2.00000
      4       9.6418      2.00000
      5      11.3504      0.04355
      6      16.6671      0.00000
      7      18.3873      0.00000
      8      22.5615      0.00000
      9      24.7572      0.00000
     10      32.8425      0.00000
     11      36.7091      0.00000
     12      39.1977      0.00000

 k-point   240 :      -0.2500    0.3750    0.1250
  band No.  band energies     occupation 
      1       6.0514      2.00000
      2       6.3813      2.00000
      3       6.7980      2.00000
      4       9.3526      2.00000
      5      10.8244      2.00000
      6      15.4294      0.00000
      7      20.8025      0.00000
      8      21.2205      0.00000
      9      26.3822      0.00000
     10      32.5736      0.00000
     11      35.6762      0.00000
     12      40.7143      0.00000

 k-point   241 :       0.1250   -0.2500    0.3750
  band No.  band energies     occupation 
      1       6.0514      2.00000
      2       6.3813      2.00000
      3       6.7980      2.00000
      4       9.3526      2.00000
      5      10.8244      2.00000
      6      15.4294      0.00000
      7      20.8025      0.00000
      8      21.2205      0.00000
      9      26.3822      0.00000
     10      32.5736      0.00000
     11      35.6762      0.00000
     12      40.7143      0.00000

 k-point   242 :       0.3750    0.1250   -0.2500
  band No.  band energies     occupation 
      1       6.0514      2.00000
      2       6.3813      2.00000
      3       6.7980      2.00000
      4       9.3526      2.00000
      5      10.8244      2.00000
      6      15.4294      0.00000
      7      20.8025      0.00000
      8      21.2205      0.00000
      9      26.3822      0.00000
     10      32.5736      0.00000
     11      35.6762      0.00000
     12      40.7143      0.00000

 k-point   243 :       0.3750    0.2500   -0.3750
  band No.  band energies     occupation 
      1       6.0514      2.00000
      2       6.3813      2.00000
      3       6.7980      2.00000
      4       9.3526      2.00000
      5      10.8244      2.00000
      6      15.4295      0.00000
      7      20.8025      0.00000
      8      21.2205      0.00000
      9      26.3821      0.00000
     10      32.5736      0.00000
     11      35.6762      0.00000
     12      40.7143      0.00000

 k-point   244 :      -0.2500    0.3750   -0.3750
  band No.  band energies     occupation 
      1       6.0514      2.00000
      2       6.3813      2.00000
      3       6.7980      2.00000
      4       9.3526      2.00000
      5      10.8244      2.00000
      6      15.4295      0.00000
      7      20.8025      0.00000
      8      21.2205      0.00000
      9      26.3821      0.00000
     10      32.5736      0.00000
     11      35.6762      0.00000
     12      40.7143      0.00000

 k-point   245 :       0.1250    0.3750   -0.2500
  band No.  band energies     occupation 
      1       6.0514      2.00000
      2       6.3813      2.00000
      3       6.7980      2.00000
      4       9.3526      2.00000
      5      10.8244      2.00000
      6      15.4294      0.00000
      7      20.8025      0.00000
      8      21.2205      0.00000
      9      26.3822      0.00000
     10      32.5736      0.00000
     11      35.6762      0.00000
     12      40.7143      0.00000

 k-point   246 :       0.3750   -0.2500   -0.3750
  band No.  band energies     occupation 
      1       6.0514      2.00000
      2       6.3813      2.00000
      3       6.7980      2.00000
      4       9.3526      2.00000
      5      10.8244      2.00000
      6      15.4295      0.00000
      7      20.8025      0.00000
      8      21.2205      0.00000
      9      26.3821      0.00000
     10      32.5736      0.00000
     11      35.6762      0.00000
     12      40.7143      0.00000

 k-point   247 :       0.3750   -0.3750    0.2500
  band No.  band energies     occupation 
      1       6.0514      2.00000
      2       6.3813      2.00000
      3       6.7980      2.00000
      4       9.3526      2.00000
      5      10.8244      2.00000
      6      15.4295      0.00000
      7      20.8025      0.00000
      8      21.2205      0.00000
      9      26.3821      0.00000
     10      32.5736      0.00000
     11      35.6762      0.00000
     12      40.7143      0.00000

 k-point   248 :      -0.2500    0.1250    0.3750
  band No.  band energies     occupation 
      1       6.0514      2.00000
      2       6.3813      2.00000
      3       6.7980      2.00000
      4       9.3526      2.00000
      5      10.8244      2.00000
      6      15.4294      0.00000
      7      20.8025      0.00000
      8      21.2205      0.00000
      9      26.3822      0.00000
     10      32.5736      0.00000
     11      35.6762      0.00000
     12      40.7143      0.00000

 k-point   249 :      -0.3750    0.3750    0.2500
  band No.  band energies     occupation 
      1       6.0514      2.00000
      2       6.3813      2.00000
      3       6.7980      2.00000
      4       9.3526      2.00000
      5      10.8244      2.00000
      6      15.4295      0.00000
      7      20.8025      0.00000
      8      21.2205      0.00000
      9      26.3821      0.00000
     10      32.5736      0.00000
     11      35.6762      0.00000
     12      40.7143      0.00000

 k-point   250 :       0.2500    0.3750   -0.3750
  band No.  band energies     occupation 
      1       6.0514      2.00000
      2       6.3813      2.00000
      3       6.7980      2.00000
      4       9.3526      2.00000
      5      10.8244      2.00000
      6      15.4295      0.00000
      7      20.8025      0.00000
      8      21.2205      0.00000
      9      26.3821      0.00000
     10      32.5736      0.00000
     11      35.6762      0.00000
     12      40.7143      0.00000

 k-point   251 :       0.3750   -0.2500    0.1250
  band No.  band energies     occupation 
      1       6.0514      2.00000
      2       6.3813      2.00000
      3       6.7980      2.00000
      4       9.3526      2.00000
      5      10.8244      2.00000
      6      15.4294      0.00000
      7      20.8025      0.00000
      8      21.2205      0.00000
      9      26.3822      0.00000
     10      32.5736      0.00000
     11      35.6762      0.00000
     12      40.7143      0.00000

 k-point   252 :      -0.3750    0.5000    0.1250
  band No.  band energies     occupation 
      1       4.8349      2.00000
      2       5.2268      2.00000
      3       9.1896      2.00000
      4      10.4390      2.00000
      5      11.7740      0.00000
      6      16.1434      0.00000
      7      19.0893      0.00000
      8      21.9983      0.00000
      9      23.2301      0.00000
     10      34.0838      0.00000
     11      34.6147      0.00000
     12      38.6426      0.00000

 k-point   253 :       0.1250   -0.3750    0.5000
  band No.  band energies     occupation 
      1       4.8349      2.00000
      2       5.2268      2.00000
      3       9.1896      2.00000
      4      10.4390      2.00000
      5      11.7740      0.00000
      6      16.1434      0.00000
      7      19.0893      0.00000
      8      21.9983      0.00000
      9      23.2301      0.00000
     10      34.0838      0.00000
     11      34.6147      0.00000
     12      38.6426      0.00000

 k-point   254 :       0.5000    0.1250   -0.3750
  band No.  band energies     occupation 
      1       4.8349      2.00000
      2       5.2268      2.00000
      3       9.1896      2.00000
      4      10.4390      2.00000
      5      11.7740      0.00000
      6      16.1434      0.00000
      7      19.0893      0.00000
      8      21.9983      0.00000
      9      23.2301      0.00000
     10      34.0838      0.00000
     11      34.6147      0.00000
     12      38.6426      0.00000

 k-point   255 :       0.5000    0.3750   -0.1250
  band No.  band energies     occupation 
      1       4.8349      2.00000
      2       5.2268      2.00000
      3       9.1896      2.00000
      4      10.4390      2.00000
      5      11.7740      0.00000
      6      16.1434      0.00000
      7      19.0893      0.00000
      8      21.9983      0.00000
      9      23.2301      0.00000
     10      34.0838      0.00000
     11      34.6147      0.00000
     12      38.6426      0.00000

 k-point   256 :      -0.3750    0.1250    0.5000
  band No.  band energies     occupation 
      1       4.8349      2.00000
      2       5.2268      2.00000
      3       9.1896      2.00000
      4      10.4390      2.00000
      5      11.7740      0.00000
      6      16.1434      0.00000
      7      19.0893      0.00000
      8      21.9983      0.00000
      9      23.2301      0.00000
     10      34.0838      0.00000
     11      34.6147      0.00000
     12      38.6426      0.00000

 k-point   257 :       0.1250    0.5000   -0.3750
  band No.  band energies     occupation 
      1       4.8349      2.00000
      2       5.2268      2.00000
      3       9.1896      2.00000
      4      10.4390      2.00000
      5      11.7740      0.00000
      6      16.1434      0.00000
      7      19.0893      0.00000
      8      21.9983      0.00000
      9      23.2301      0.00000
     10      34.0838      0.00000
     11      34.6147      0.00000
     12      38.6426      0.00000

 k-point   258 :      -0.2500    0.5000    0.2500
  band No.  band energies     occupation 
      1       5.6642      2.00000
      2       6.7627      2.00000
      3       6.7627      2.00000
      4       9.3011      2.00000
      5      11.7759      0.00000
      6      18.4626      0.00000
      7      19.6042      0.00000
      8      19.6042      0.00000
      9      23.3539      0.00000
     10      35.8417      0.00000
     11      35.8418      0.00000
     12      38.4662      0.00000

 k-point   259 :       0.2500   -0.2500    0.5000
  band No.  band energies     occupation 
      1       5.6642      2.00000
      2       6.7627      2.00000
      3       6.7627      2.00000
      4       9.3011      2.00000
      5      11.7759      0.00000
      6      18.4626      0.00000
      7      19.6042      0.00000
      8      19.6042      0.00000
      9      23.3539      0.00000
     10      35.8417      0.00000
     11      35.8418      0.00000
     12      38.4662      0.00000

 k-point   260 :       0.5000    0.2500   -0.2500
  band No.  band energies     occupation 
      1       5.6642      2.00000
      2       6.7627      2.00000
      3       6.7627      2.00000
      4       9.3011      2.00000
      5      11.7759      0.00000
      6      18.4626      0.00000
      7      19.6042      0.00000
      8      19.6042      0.00000
      9      23.3539      0.00000
     10      35.8417      0.00000
     11      35.8418      0.00000
     12      38.4662      0.00000


--------------------------------------------------------------------------------------------------------


 soft charge-density along one line, spin component            1
         0         1         2         3         4         5         6         7         8         9
 total charge-density along one line
 
 pseudopotential strength for first ion, spin component:            1
 -2.396  -0.000  -0.016  -0.000   0.009  -2.612  -0.000  -0.016
 -0.000  -2.396   0.000  -0.019   0.000  -0.000  -2.612   0.000
 -0.016   0.000  -2.412   0.000  -0.006  -0.016   0.000  -2.628
 -0.000  -0.019   0.000  -2.409  -0.000  -0.000  -0.018   0.000
  0.009   0.000  -0.006  -0.000  -2.419   0.009   0.000  -0.006
 -2.612  -0.000  -0.016  -0.000   0.009  -2.809  -0.000  -0.015
 -0.000  -2.612   0.000  -0.018   0.000  -0.000  -2.810   0.000
 -0.016   0.000  -2.628   0.000  -0.006  -0.015   0.000  -2.825
 -0.000  -0.018   0.000  -2.625  -0.000  -0.000  -0.018   0.000
  0.009   0.000  -0.006  -0.000  -2.635   0.009   0.000  -0.005
  0.000   0.000   0.000   0.000   0.000   0.000   0.000   0.000
  0.000   0.000   0.000   0.000   0.000   0.000   0.000   0.000
  0.000  -0.000  -0.000   0.000  -0.000   0.000  -0.000  -0.000
  0.000   0.000  -0.000   0.000  -0.000   0.000   0.000  -0.000
  0.000   0.000  -0.000  -0.000   0.000   0.000   0.000  -0.000
  0.000  -0.000  -0.000   0.000  -0.000   0.000  -0.000  -0.000
  0.000   0.000  -0.000   0.000  -0.000   0.000   0.000  -0.000
  0.000   0.000  -0.000  -0.000   0.000   0.000   0.000  -0.000
 total augmentation occupancy for first ion, spin component:            1
  4.967  -0.000  -0.361  -0.000   0.208  -3.388   0.000   0.079   0.000  -0.046  -0.000   0.000   0.000   0.000  -0.000  -0.000
 -0.000   4.966   0.000  -0.417   0.001   0.000  -3.388  -0.000   0.092  -0.000  -0.000   0.000   0.000   0.000   0.000  -0.000
 -0.361   0.000   4.598   0.000  -0.127   0.079  -0.000  -3.306  -0.000   0.028  -0.000   0.000  -0.000  -0.000  -0.000   0.000
 -0.000  -0.417   0.000   4.672  -0.001   0.000   0.092  -0.000  -3.323   0.000  -0.000   0.000   0.000   0.000  -0.000  -0.000
  0.208   0.001  -0.127  -0.001   4.451  -0.046  -0.000   0.028   0.000  -3.274  -0.000   0.000   0.000   0.000   0.000  -0.000
 -3.388   0.000   0.079   0.000  -0.046   3.588  -0.000   0.131  -0.000  -0.075   0.000  -0.000  -0.000  -0.000   0.000   0.000
  0.000  -3.388  -0.000   0.092  -0.000  -0.000   3.588   0.000   0.151   0.000   0.000  -0.000  -0.000  -0.000  -0.000   0.000
  0.079  -0.000  -3.306  -0.000   0.028   0.131   0.000   3.722   0.000   0.046   0.000  -0.000   0.000   0.000  -0.000  -0.000
  0.000   0.092  -0.000  -3.323   0.000  -0.000   0.151   0.000   3.695  -0.000   0.000  -0.000  -0.000   0.000   0.000   0.000
 -0.046  -0.000   0.028   0.000  -3.274  -0.075   0.000   0.046  -0.000   3.775  -0.000   0.000  -0.000  -0.000  -0.000   0.000
 -0.000  -0.000  -0.000  -0.000  -0.000   0.000   0.000   0.000   0.000  -0.000   2.726  -0.653   0.000  -0.000   0.000  -0.000
  0.000   0.000   0.000   0.000   0.000  -0.000  -0.000  -0.000  -0.000   0.000  -0.653   0.177  -0.000   0.000  -0.000   0.000
  0.000   0.000  -0.000   0.000   0.000  -0.000  -0.000   0.000  -0.000  -0.000   0.000  -0.000   0.324   0.000   0.000  -0.020
  0.000   0.000  -0.000   0.000   0.000  -0.000  -0.000   0.000   0.000  -0.000  -0.000   0.000   0.000   0.324   0.000  -0.000
 -0.000   0.000  -0.000  -0.000   0.000   0.000  -0.000  -0.000   0.000  -0.000   0.000  -0.000   0.000   0.000   0.324  -0.000
 -0.000  -0.000   0.000  -0.000  -0.000   0.000   0.000  -0.000   0.000   0.000  -0.000   0.000  -0.020  -0.000  -0.000   0.001
 -0.000  -0.000   0.000  -0.000  -0.000   0.000   0.000  -0.000  -0.000   0.000   0.000  -0.000  -0.000  -0.020  -0.000   0.000
  0.000  -0.000   0.000   0.000  -0.000  -0.000   0.000   0.000  -0.000   0.000  -0.000   0.000   0.000  -0.000  -0.020   0.000


------------------------ aborting loop because EDIFF is reached ----------------------------------------





 total charge

# of ion       s       p       d       tot
------------------------------------------
    1        0.646   0.627   8.016   9.289
 
    CHARGE:  cpu time    0.0124: real time    0.0151
    FORLOC:  cpu time    0.0000: real time    0.0000
    FORNL :  cpu time    0.0352: real time    0.0352
    FORCOR:  cpu time    0.0059: real time    0.0059
    FORHAR:  cpu time    0.0006: real time    0.0006
    MIXING:  cpu time    0.0003: real time    0.0003
    OFIELD:  cpu time    0.0000: real time    0.0000

 VOLUME and BASIS-vectors are now :
 -----------------------------------------------------------------------------
  energy-cutoff  :      320.00
  volume of cell :       15.10
      direct lattice vectors                 reciprocal lattice vectors
     2.402521000  0.000000000  1.387096000     0.416229452 -0.147159307  0.000000000
     0.800840000  2.265118000  1.387096000     0.000000000  0.441478104  0.000000000
     0.000000000  0.000000000  2.774192000    -0.208114726 -0.147159399  0.360465317

  length of vectors
     2.774192219  2.774191697  2.774192000     0.441477993  0.441478104  0.441478055


 FORCES acting on ions
    electron-ion (+dipol)            ewald-force                    non-local-force                 convergence-correction
 -----------------------------------------------------------------------------------------------
   0.371E-05 -.231E-06 -.258E-05   -.185E-14 -.529E-16 -.175E-15   0.954E-05 0.527E-05 -.509E-05   -.108E-04 -.335E-05 0.575E-05
 -----------------------------------------------------------------------------------------------
   0.371E-05 -.231E-06 -.258E-05   -.185E-14 -.529E-16 -.175E-15   0.954E-05 0.527E-05 -.509E-05   -.108E-04 -.335E-05 0.575E-05
 
 
 POSITION                                       TOTAL-FORCE (eV/Angst)
 -----------------------------------------------------------------------------------
      0.00000      0.00000      0.00000         0.000002      0.000002     -0.000002
 -----------------------------------------------------------------------------------
    total drift:                                0.000002      0.000002     -0.000002


--------------------------------------------------------------------------------------------------------



  FREE ENERGIE OF THE ION-ELECTRON SYSTEM (eV)
  ---------------------------------------------------
  free  energy   TOTEN  =        -5.41111826 eV

  energy  without entropy=       -5.40831514  energy(sigma->0) =       -5.40971670
 


--------------------------------------------------------------------------------------------------------


    POTLOK:  cpu time    0.0062: real time    0.0062


--------------------------------------------------------------------------------------------------------


     LOOP+:  cpu time   10.8712: real time   10.9138
    4ORBIT:  cpu time    0.0000: real time    0.0000



 total charge

# of ion       s       p       d       tot
------------------------------------------
    1        0.646   0.627   8.016   9.289
 

 total amount of memory used by VASP MPI-rank0    33388. kBytes
=======================================================================

   base      :      30000. kBytes
   nonl-proj :       2247. kBytes
   fftplans  :         52. kBytes
   grid      :         76. kBytes
   one-center:         15. kBytes
   wavefun   :        998. kBytes
 
  
  
 General timing and accounting informations for this job:
 ========================================================
  
                  Total CPU time used (sec):       12.086
                            User time (sec):       11.854
                          System time (sec):        0.232
                         Elapsed time (sec):       17.519
  
                   Maximum memory used (kb):       54232.
                   Average memory used (kb):          N/A
  
                          Minor page faults:         9772
                          Major page faults:          451
                 Voluntary context switches:         5931
