 vasp.6.2.0 18Jan21 (build Feb  1 2022 01:28:57) complex                         
 executed on             LinuxPGI date 2022.05.18  19:40:16
 running on   16 total cores
 distrk:  each k-point on   16 cores,    1 groups
 distr:  one band on NCORE=   4 cores,    4 groups


--------------------------------------------------------------------------------------------------------


 INCAR:
   ALGO = 38
   EDIFF = 0.0001
   EDIFFG = -0.03
   ENCUT = 420
   GGA = RP
   IBRION = 2
   ISIF = 0
   ISMEAR = 0
   ISPIN = 1
   ISYM = 0
   LASPH = False
   LORBIT = 11
   LREAL = False
   LVTOT = False
   LWAVE = False
   NCORE = 4
   NELM = 60
   NELMIN = 4
   NSW = 0
   PREC = Normal
   SIGMA = 0.05
   SYMPREC = 1e-05

 POTCAR:    PAW_PBE Pt 04Feb2005                  
 POTCAR:    PAW_PBE Pt 04Feb2005                  
   SHA256 =  3ed90460adef76debcff1cfb73ee1349b515b1a3db03439735b44de3a8db7dc8 Pt/POTCAR             
   COPYR  = (c) Copyright 04Feb2005 Georg Kresse                                                    
   COPYR  = This file is part of the software VASP. Any use, copying, and all other rights are regul
   COPYR  = If you do not have a valid VASP license, you may not use, copy or distribute this file. 
   VRHFIN =Pt: s1d9                                                                                 
   LEXCH  = PE                                                                                      
   EATOM  =   729.1176 eV,   53.5886 Ry                                                             
                                                                                                    
   TITEL  = PAW_PBE Pt 04Feb2005                                                                    
   LULTRA =        F    use ultrasoft PP ?                                                          
   IUNSCR =        1    unscreen: 0-lin 1-nonlin 2-no                                               
   RPACOR =    2.330    partial core radius                                                         
   POMASS =  195.080; ZVAL   =   10.000    mass and valenz                                          
   RCORE  =    2.600    outmost cutoff radius                                                       
   RWIGS  =    2.750; RWIGS  =    1.455    wigner-seitz radius (au A)                               
   ENMAX  =  230.283; ENMIN  =  172.712 eV                                                          
   ICORE  =        3    local potential                                                             
   LCOR   =        T    correct aug charges                                                         
   LPAW   =        T    paw PP                                                                      
   EAUG   =  358.966                                                                                
   DEXC   =    0.000                                                                                
   RMAX   =    2.658    core radius for proj-oper                                                   
   RAUG   =    1.300    factor for augmentation sphere                                              
   RDEP   =    2.761    radius for radial grids                                                     
   RDEPT  =    2.203    core radius for aug-charge                                                  
                                                                                                    
   Atomic configuration                                                                             
   16 entries                                                                                       
     n  l   j            E        occ.                                                              
     1  0  0.50    -78401.1885   2.0000                                                             
     2  0  0.50    -13770.7750   2.0000                                                             
     2  1  1.50    -11931.0468   6.0000                                                             
     3  0  0.50     -3234.7234   2.0000                                                             
     3  1  1.50     -2699.2216   6.0000                                                             
     3  2  2.50     -2119.5714  10.0000                                                             
     4  0  0.50      -695.1528   2.0000                                                             
     4  1  1.50      -519.6034   6.0000                                                             
     4  2  2.50      -306.6786  10.0000                                                             
     4  3  3.50       -70.1041  14.0000                                                             
     5  0  0.50      -101.7747   2.0000                                                             
     5  1  1.50       -55.9873   6.0000                                                             
     5  2  2.50        -6.1423   9.0000                                                             
     6  0  0.50        -5.6573   1.0000                                                             
     6  1  1.50        -6.8029   0.0000                                                             
     5  3  2.50        -1.3606   0.0000                                                             
   Description                                                                                      
     l       E           TYP  RCUT    TYP  RCUT                                                     
     2     -6.1423404     23  2.500                                                                 
     2     -7.5029230     23  2.500                                                                 
     0     -5.6573207     23  2.500                                                                 
     0      0.7416693     23  2.500                                                                 
     1     -2.7211652     23  2.600                                                                 
     1     20.4087390     23  2.600                                                                 
     3     -1.3605826     23  2.500                                                                 
  local pseudopotential read in
  partial core-charges read in
  partial kinetic energy density read in
  atomic valenz-charges read in
  non local Contribution for L=            2  read in
    real space projection operators read in
  non local Contribution for L=            2  read in
    real space projection operators read in
  non local Contribution for L=            0  read in
    real space projection operators read in
  non local Contribution for L=            0  read in
    real space projection operators read in
  non local Contribution for L=            1  read in
    real space projection operators read in
  non local Contribution for L=            1  read in
    real space projection operators read in
    PAW grid and wavefunctions read in
 
   number of l-projection  operators is LMAX  =            6
   number of lm-projection operators is LMMAX =           18
 
 -----------------------------------------------------------------------------
|                                                                             |
|               ----> ADVICE to this user running VASP <----                  |
|                                                                             |
|     You enforced a specific xc type in the INCAR file but a different       |
|     type was found in the POTCAR file.                                      |
|     I HOPE YOU KNOW WHAT YOU ARE DOING!                                     |
|                                                                             |
 -----------------------------------------------------------------------------

  PAW_PBE Pt 04Feb2005                  :
 energy of atom  1       EATOM= -729.1176
 kinetic energy error for atom=    0.0052 (will be added to EATOM!!)
 
 
 POSCAR: Pt1
  positions in direct lattice
  velocities in cartesian coordinates
 exchange correlation table for  LEXCH =        9
   RHO(1)=    0.500       N(1)  =     2000
   RHO(2)=  100.500       N(2)  =     4000
 


--------------------------------------------------------------------------------------------------------


 ion  position               nearest neighbor table
   1  0.000  0.000  0.000-
 

IMPORTANT INFORMATION: All symmetrisations will be switched off!
NOSYMM: (Re-)initialisation of all symmetry stuff for point group C_1.


----------------------------------------------------------------------------------------

                                     Primitive cell                                     

  volume of cell :      10.7094

  direct lattice vectors                    reciprocal lattice vectors
     2.142678000  0.000004000  1.237088000     0.466706491 -0.165006467 -0.000000865
     0.714231000  2.020134000  1.237088000    -0.000000462  0.495017321 -0.000000800
     0.000006000  0.000004000  2.474157000    -0.233354806 -0.165006694  0.404178902

  length of vectors
     2.474157580  2.474157234  2.474157000     0.495017255  0.495017321  0.495017434

  position of ions in fractional coordinates (direct lattice)
     0.000000000  0.000000000  0.000000000

  ion indices of the primitive-cell ions
   primitive index   ion index
                 1           1

----------------------------------------------------------------------------------------

 
 -----------------------------------------------------------------------------
|                                                                             |
|           W    W    AA    RRRRR   N    N  II  N    N   GGGG   !!!           |
|           W    W   A  A   R    R  NN   N  II  NN   N  G    G  !!!           |
|           W    W  A    A  R    R  N N  N  II  N N  N  G       !!!           |
|           W WW W  AAAAAA  RRRRR   N  N N  II  N  N N  G  GGG   !            |
|           WW  WW  A    A  R   R   N   NN  II  N   NN  G    G                |
|           W    W  A    A  R    R  N    N  II  N    N   GGGG   !!!           |
|                                                                             |
|     The requested file  could not be found or opened for reading            |
|     k-point information. Automatic k-point generation is used as a          |
|     fallback, which may lead to unwanted results.                           |
|                                                                             |
 -----------------------------------------------------------------------------

 

Automatic generation of k-mesh.
 Grid dimensions derived from KSPACING:
 generate k-points for:    7    7    7

 Generating k-lattice:

  Cartesian coordinates                     Fractional coordinates (reciprocal lattice)
     0.066672356 -0.023572352 -0.000000124     0.142857143 -0.000000000  0.000000000
    -0.000000066  0.070716760 -0.000000114     0.000000000  0.142857143  0.000000000
    -0.033336401 -0.023572385  0.057739843     0.000000000  0.000000000  0.142857143

  Length of vectors
     0.070716751  0.070716760  0.070716776

  Shift w.r.t. Gamma in fractional coordinates (k-lattice)
     0.000000000  0.000000000  0.000000000

 
 Subroutine IBZKPT returns following result:
 ===========================================
 
 Found    172 irreducible k-points:
 
 Following reciprocal coordinates:
            Coordinates               Weight
  0.000000  0.000000  0.000000      1.000000
  0.142857  0.000000  0.000000      2.000000
  0.000000  0.142857  0.000000      2.000000
  0.000000  0.000000  0.142857      2.000000
  0.142857  0.142857  0.142857      2.000000
  0.285714  0.000000  0.000000      2.000000
  0.000000  0.285714  0.000000      2.000000
  0.000000  0.000000  0.285714      2.000000
  0.285714  0.285714  0.285714      2.000000
  0.428571  0.000000  0.000000      2.000000
  0.000000  0.428571  0.000000      2.000000
  0.000000  0.000000  0.428571      2.000000
  0.428571  0.428571  0.428571      2.000000
  0.142857  0.142857  0.000000      2.000000
  0.000000  0.142857  0.142857      2.000000
  0.142857  0.000000  0.142857      2.000000
  0.285714  0.142857  0.000000      2.000000
  0.000000  0.285714  0.142857      2.000000
  0.142857  0.000000  0.285714      2.000000
  0.142857  0.142857 -0.142857      2.000000
  0.285714  0.142857  0.285714      2.000000
  0.142857  0.285714  0.000000      2.000000
  0.142857 -0.142857 -0.142857      2.000000
  0.285714  0.285714  0.142857      2.000000
  0.000000  0.142857  0.285714      2.000000
 -0.142857  0.142857 -0.142857      2.000000
  0.142857  0.285714  0.285714      2.000000
  0.285714  0.000000  0.142857      2.000000
  0.428571  0.142857  0.000000      2.000000
  0.000000  0.428571  0.142857      2.000000
  0.142857  0.000000  0.428571      2.000000
  0.142857  0.142857 -0.285714      2.000000
  0.428571  0.285714  0.428571      2.000000
  0.142857  0.428571  0.000000      2.000000
  0.285714 -0.142857 -0.142857      2.000000
  0.428571  0.428571  0.285714      2.000000
  0.000000  0.142857  0.428571      2.000000
 -0.142857  0.285714 -0.142857      2.000000
  0.285714  0.428571  0.428571      2.000000
  0.428571  0.000000  0.142857      2.000000
 -0.428571  0.142857  0.000000      2.000000
  0.000000 -0.428571  0.142857      2.000000
  0.142857  0.000000 -0.428571      2.000000
  0.142857  0.142857 -0.428571      2.000000
 -0.428571  0.428571 -0.428571      2.000000
  0.142857 -0.428571  0.000000      2.000000
  0.428571 -0.142857 -0.142857      2.000000
 -0.428571 -0.428571  0.428571      2.000000
  0.000000  0.142857 -0.428571      2.000000
 -0.142857  0.428571 -0.142857      2.000000
  0.428571 -0.428571 -0.428571      2.000000
 -0.428571  0.000000  0.142857      2.000000
 -0.285714  0.142857  0.000000      2.000000
  0.000000 -0.285714  0.142857      2.000000
  0.142857  0.000000 -0.285714      2.000000
  0.142857  0.142857  0.428571      2.000000
 -0.285714 -0.428571 -0.285714      2.000000
  0.142857 -0.285714  0.000000      2.000000
 -0.428571 -0.142857 -0.142857      2.000000
 -0.285714 -0.285714 -0.428571      2.000000
  0.000000  0.142857 -0.285714      2.000000
 -0.142857 -0.428571 -0.142857      2.000000
 -0.428571 -0.285714 -0.285714      2.000000
 -0.285714  0.000000  0.142857      2.000000
 -0.142857  0.142857  0.000000      2.000000
  0.000000 -0.142857  0.142857      2.000000
  0.142857  0.000000 -0.142857      2.000000
  0.142857  0.142857  0.285714      2.000000
 -0.142857 -0.285714 -0.142857      2.000000
 -0.285714 -0.142857 -0.142857      2.000000
  0.285714  0.285714  0.000000      2.000000
  0.000000  0.285714  0.285714      2.000000
  0.285714  0.000000  0.285714      2.000000
  0.428571  0.285714  0.000000      2.000000
  0.000000  0.428571  0.285714      2.000000
  0.285714  0.000000  0.428571      2.000000
  0.285714  0.285714 -0.142857      2.000000
  0.428571  0.142857  0.428571      2.000000
  0.285714  0.428571  0.000000      2.000000
  0.142857 -0.285714 -0.285714      2.000000
  0.428571  0.428571  0.142857      2.000000
  0.000000  0.285714  0.428571      2.000000
 -0.285714  0.142857 -0.285714      2.000000
  0.142857  0.428571  0.428571      2.000000
  0.428571  0.000000  0.285714      2.000000
 -0.428571  0.285714  0.000000      2.000000
  0.000000 -0.428571  0.285714      2.000000
  0.285714  0.000000 -0.428571      2.000000
  0.285714  0.285714 -0.285714      2.000000
 -0.428571  0.285714 -0.428571      2.000000
  0.285714 -0.428571  0.000000      2.000000
  0.285714 -0.285714 -0.285714      2.000000
 -0.428571 -0.428571  0.285714      2.000000
  0.000000  0.285714 -0.428571      2.000000
 -0.285714  0.285714 -0.285714      2.000000
  0.285714 -0.428571 -0.428571      2.000000
 -0.428571  0.000000  0.285714      2.000000
 -0.285714  0.285714  0.000000      2.000000
  0.000000 -0.285714  0.285714      2.000000
  0.285714  0.000000 -0.285714      2.000000
  0.285714  0.285714 -0.428571      2.000000
 -0.285714  0.428571 -0.285714      2.000000
  0.428571 -0.285714 -0.285714      2.000000
  0.428571  0.428571  0.000000      2.000000
  0.000000  0.428571  0.428571      2.000000
  0.428571  0.000000  0.428571      2.000000
 -0.428571  0.428571  0.000000      2.000000
  0.000000 -0.428571  0.428571      2.000000
  0.428571  0.000000 -0.428571      2.000000
  0.428571  0.428571 -0.142857      2.000000
 -0.428571  0.142857 -0.428571      2.000000
  0.142857 -0.428571 -0.428571      2.000000
  0.428571  0.285714  0.142857      2.000000
  0.142857  0.428571  0.285714      2.000000
  0.285714  0.142857  0.428571      2.000000
  0.285714  0.142857 -0.142857      2.000000
  0.428571  0.142857  0.285714      2.000000
  0.142857 -0.285714 -0.142857      2.000000
  0.142857  0.285714 -0.142857      2.000000
  0.142857 -0.142857 -0.285714      2.000000
  0.285714  0.428571  0.142857      2.000000
 -0.142857  0.142857 -0.285714      2.000000
 -0.285714  0.142857 -0.142857      2.000000
  0.142857  0.285714  0.428571      2.000000
 -0.428571  0.285714  0.142857      2.000000
  0.142857 -0.428571  0.285714      2.000000
  0.285714  0.142857 -0.428571      2.000000
  0.285714  0.142857 -0.285714      2.000000
 -0.428571  0.285714  0.428571      2.000000
  0.142857 -0.428571 -0.142857      2.000000
  0.142857  0.428571 -0.142857      2.000000
  0.285714 -0.142857 -0.285714      2.000000
 -0.428571 -0.285714  0.428571      2.000000
  0.428571 -0.428571  0.285714      2.000000
 -0.142857  0.142857 -0.428571      2.000000
 -0.285714  0.285714  0.142857      2.000000
 -0.142857  0.142857  0.428571      2.000000
 -0.285714  0.285714 -0.142857      2.000000
  0.428571 -0.428571 -0.285714      2.000000
  0.285714  0.428571 -0.428571      2.000000
 -0.428571 -0.142857  0.142857      2.000000
  0.142857 -0.285714  0.285714      2.000000
  0.428571 -0.142857  0.142857      2.000000
 -0.142857 -0.285714  0.285714      2.000000
 -0.285714  0.428571 -0.428571      2.000000
  0.428571 -0.142857 -0.285714      2.000000
 -0.285714  0.428571 -0.142857      2.000000
 -0.142857 -0.285714  0.428571      2.000000
 -0.428571  0.428571  0.142857      2.000000
  0.142857 -0.428571  0.428571      2.000000
  0.428571  0.142857 -0.428571      2.000000
  0.428571  0.285714 -0.142857      2.000000
 -0.428571  0.142857  0.428571      2.000000
  0.142857 -0.428571 -0.285714      2.000000
  0.285714  0.428571 -0.142857      2.000000
  0.142857 -0.285714 -0.428571      2.000000
  0.428571 -0.428571  0.142857      2.000000
 -0.285714  0.142857 -0.428571      2.000000
 -0.428571  0.142857 -0.285714      2.000000
  0.142857  0.428571 -0.428571      2.000000
 -0.285714  0.428571  0.142857      2.000000
  0.142857 -0.285714  0.428571      2.000000
  0.428571  0.142857 -0.285714      2.000000
  0.428571  0.285714 -0.285714      2.000000
 -0.285714  0.285714 -0.428571      2.000000
  0.142857  0.428571 -0.285714      2.000000
  0.285714 -0.285714 -0.428571      2.000000
  0.428571 -0.285714  0.285714      2.000000
 -0.285714  0.142857  0.428571      2.000000
 -0.285714  0.428571  0.285714      2.000000
  0.285714  0.428571 -0.285714      2.000000
  0.428571 -0.285714  0.142857      2.000000
 
 Following cartesian coordinates:
            Coordinates               Weight
  0.000000  0.000000  0.000000      1.000000
  0.066672 -0.023572 -0.000000      2.000000
 -0.000000  0.070717 -0.000000      2.000000
 -0.033336 -0.023572  0.057740      2.000000
  0.033336  0.023572  0.057740      2.000000
  0.133345 -0.047145 -0.000000      2.000000
 -0.000000  0.141434 -0.000000      2.000000
 -0.066673 -0.047145  0.115480      2.000000
  0.066672  0.047144  0.115479      2.000000
  0.200017 -0.070717 -0.000000      2.000000
 -0.000000  0.212150 -0.000000      2.000000
 -0.100009 -0.070717  0.173220      2.000000
  0.100008  0.070716  0.173219      2.000000
  0.066672  0.047144 -0.000000      2.000000
 -0.033336  0.047144  0.057740      2.000000
  0.033336 -0.047145  0.057740      2.000000
  0.133345  0.023572 -0.000000      2.000000
 -0.033337  0.117861  0.057740      2.000000
 -0.000000 -0.070717  0.115480      2.000000
  0.100009  0.070717 -0.057740      2.000000
  0.066672 -0.023573  0.115479      2.000000
  0.066672  0.117861 -0.000000      2.000000
  0.100009 -0.070717 -0.057740      2.000000
  0.100008  0.070716  0.057739      2.000000
 -0.066673  0.023572  0.115480      2.000000
 -0.033336  0.117861 -0.057740      2.000000
 -0.000001  0.070716  0.115479      2.000000
  0.100008 -0.070717  0.057740      2.000000
  0.200017 -0.000000 -0.000000      2.000000
 -0.033337  0.188578  0.057740      2.000000
 -0.033337 -0.094290  0.173219      2.000000
  0.133345  0.094289 -0.115480      2.000000
  0.100008 -0.000001  0.173219      2.000000
  0.066672  0.188578 -0.000000      2.000000
  0.166681 -0.094289 -0.057740      2.000000
  0.133344  0.094288  0.115479      2.000000
 -0.100009 -0.000000  0.173219      2.000000
 -0.033336  0.188578 -0.057740      2.000000
  0.033335  0.094288  0.173219      2.000000
  0.166681 -0.094289  0.057739      2.000000
 -0.200017  0.141434  0.000000      2.000000
 -0.033336 -0.235723  0.057740      2.000000
  0.166682  0.047145 -0.173220      2.000000
  0.166681  0.117862 -0.173220      2.000000
 -0.100008  0.353584 -0.173220      2.000000
  0.066673 -0.235723  0.000000      2.000000
  0.233354 -0.117861 -0.057740      2.000000
 -0.300026 -0.212150  0.173220      2.000000
  0.100009  0.141434 -0.173220      2.000000
 -0.033336  0.259295 -0.057740      2.000000
  0.300026 -0.212150 -0.173220      2.000000
 -0.233353  0.047145  0.057740      2.000000
 -0.133345  0.117861  0.000000      2.000000
 -0.033336 -0.165006  0.057740      2.000000
  0.133345  0.023572 -0.115480      2.000000
 -0.033337 -0.023573  0.173219      2.000000
 -0.066672 -0.117861 -0.115479      2.000000
  0.066672 -0.165006  0.000000      2.000000
 -0.166681  0.023573 -0.057739      2.000000
 -0.033335 -0.023572 -0.173219      2.000000
  0.066673  0.117862 -0.115480      2.000000
 -0.033336 -0.165006 -0.057739      2.000000
 -0.133344 -0.023572 -0.115479      2.000000
 -0.166681  0.023572  0.057740      2.000000
 -0.066672  0.094289  0.000000      2.000000
 -0.033336 -0.094289  0.057740      2.000000
  0.100009  0.000000 -0.057740      2.000000
 -0.000001 -0.000000  0.115479      2.000000
 -0.033336 -0.094289 -0.057739      2.000000
 -0.100008  0.000000 -0.057739      2.000000
  0.133345  0.094289 -0.000000      2.000000
 -0.066673  0.094289  0.115479      2.000000
  0.066672 -0.094289  0.115479      2.000000
  0.200017  0.070716 -0.000001      2.000000
 -0.066673  0.165006  0.115479      2.000000
  0.033336 -0.117862  0.173219      2.000000
  0.166681  0.117861 -0.057740      2.000000
  0.100008 -0.070717  0.173219      2.000000
  0.133345  0.165006 -0.000001      2.000000
  0.133345 -0.117861 -0.115480      2.000000
  0.166680  0.117861  0.057739      2.000000
 -0.100009  0.070716  0.173219      2.000000
 -0.066672  0.165006 -0.115480      2.000000
 -0.033337  0.117861  0.173219      2.000000
  0.133344 -0.117862  0.115479      2.000000
 -0.200017  0.212151  0.000000      2.000000
 -0.066673 -0.259295  0.115480      2.000000
  0.233354  0.023572 -0.173220      2.000000
  0.200017  0.141434 -0.115480      2.000000
 -0.100008  0.282868 -0.173219      2.000000
  0.133345 -0.259295  0.000000      2.000000
  0.200018 -0.141433 -0.115480      2.000000
 -0.266690 -0.188578  0.115480      2.000000
  0.100009  0.212151 -0.173220      2.000000
 -0.066672  0.235723 -0.115480      2.000000
  0.233354 -0.188578 -0.173219      2.000000
 -0.266690  0.023572  0.115480      2.000000
 -0.133345  0.188578  0.000000      2.000000
 -0.066673 -0.188578  0.115480      2.000000
  0.200018  0.000000 -0.115480      2.000000
  0.233354  0.165006 -0.173220      2.000000
 -0.066672  0.306440 -0.115480      2.000000
  0.266690 -0.165006 -0.115480      2.000000
  0.200017  0.141433 -0.000001      2.000000
 -0.100009  0.141433  0.173219      2.000000
  0.100008 -0.141434  0.173219      2.000000
 -0.200017  0.282867  0.000000      2.000000
 -0.100009 -0.282867  0.173220      2.000000
  0.300026  0.000000 -0.173220      2.000000
  0.233353  0.165006 -0.057741      2.000000
 -0.100008  0.212151 -0.173219      2.000000
  0.166682 -0.165005 -0.173219      2.000000
  0.166681  0.047144  0.057739      2.000000
 -0.000001  0.141433  0.115479      2.000000
  0.033335 -0.047145  0.173219      2.000000
  0.166681  0.047144 -0.057740      2.000000
  0.133344 -0.047145  0.115479      2.000000
  0.100009 -0.141433 -0.057740      2.000000
  0.100009  0.141434 -0.057740      2.000000
  0.133345 -0.047144 -0.115480      2.000000
  0.100008  0.141433  0.057739      2.000000
  0.000000  0.141434 -0.115480      2.000000
 -0.100008  0.141434 -0.057740      2.000000
 -0.033337  0.047144  0.173219      2.000000
 -0.233354  0.188578  0.057740      2.000000
 -0.000000 -0.282867  0.115480      2.000000
  0.233354  0.094289 -0.173220      2.000000
  0.200017  0.070717 -0.115480      2.000000
 -0.300026  0.141433  0.173220      2.000000
  0.100009 -0.212150 -0.057740      2.000000
  0.100009  0.212150 -0.057740      2.000000
  0.200018 -0.070717 -0.115480      2.000000
 -0.300026 -0.141434  0.173220      2.000000
  0.133344 -0.330012  0.115480      2.000000
  0.033337  0.165006 -0.173220      2.000000
 -0.166681  0.165006  0.057740      2.000000
 -0.166682  0.023572  0.173220      2.000000
 -0.100008  0.212151 -0.057740      2.000000
  0.266690 -0.235723 -0.115480      2.000000
  0.233354  0.235723 -0.173220      2.000000
 -0.233353 -0.023572  0.057740      2.000000
 -0.000000 -0.212151  0.115480      2.000000
  0.166681 -0.165006  0.057740      2.000000
 -0.133345 -0.165006  0.115480      2.000000
 -0.033336  0.330012 -0.173220      2.000000
  0.266690 -0.094289 -0.115480      2.000000
 -0.100009  0.282867 -0.057740      2.000000
 -0.166681 -0.188578  0.173220      2.000000
 -0.233354  0.259295  0.057740      2.000000
 -0.033337 -0.306440  0.173220      2.000000
  0.300026  0.070717 -0.173220      2.000000
  0.233353  0.094289 -0.057740      2.000000
 -0.300026  0.070717  0.173220      2.000000
  0.133345 -0.188578 -0.115479      2.000000
  0.166681  0.188578 -0.057740      2.000000
  0.166682 -0.094289 -0.173219      2.000000
  0.166681 -0.306440  0.057740      2.000000
 -0.033336  0.188579 -0.173219      2.000000
 -0.133344  0.188579 -0.115479      2.000000
  0.166681  0.259295 -0.173220      2.000000
 -0.166681  0.235723  0.057740      2.000000
 -0.033337 -0.235723  0.173220      2.000000
  0.266690  0.047144 -0.115480      2.000000
  0.266690  0.117861 -0.115480      2.000000
 -0.033336  0.259295 -0.173220      2.000000
  0.133345  0.235723 -0.115480      2.000000
  0.233354 -0.117861 -0.173220      2.000000
  0.133344 -0.259295  0.115480      2.000000
 -0.233354  0.047144  0.173220      2.000000
 -0.200018  0.212150  0.115480      2.000000
  0.200017  0.212150 -0.115480      2.000000
  0.166681 -0.235723  0.057740      2.000000
 


--------------------------------------------------------------------------------------------------------




 Dimension of arrays:
   k-points           NKPTS =    172   k-points in BZ     NKDIM =    172   number of bands    NBANDS=     12
   number of dos      NEDOS =    301   number of ions     NIONS =      1
   non local maximal  LDIM  =      6   non local SUM 2l+1 LMDIM =     18
   total plane-waves  NPLWV =   1728
   max r-space proj   IRMAX =      1   max aug-charges    IRDMAX=   9971
   dimension x,y,z NGX =    12 NGY =   12 NGZ =   12
   dimension x,y,z NGXF=    24 NGYF=   24 NGZF=   24
   support grid    NGXF=    24 NGYF=   24 NGZF=   24
   ions per type =               1
   NGX,Y,Z   is equivalent  to a cutoff of   8.06,  8.06,  8.06 a.u.
   NGXF,Y,Z  is equivalent  to a cutoff of  16.13, 16.13, 16.13 a.u.

 SYSTEM =  unknown system                          
 POSCAR =  Pt1                                     

 Startparameter for this run:
   NWRITE =      2    write-flag & timer
   PREC   = normal    normal or accurate (medium, high low for compatibility)
   ISTART =      0    job   : 0-new  1-cont  2-samecut
   ICHARG =      2    charge: 1-file 2-atom 10-const
   ISPIN  =      1    spin polarized calculation?
   LNONCOLLINEAR =      F non collinear calculations
   LSORBIT =      F    spin-orbit coupling
   INIWAV =      1    electr: 0-lowe 1-rand  2-diag
   LASPH  =      F    aspherical Exc in radial PAW
   METAGGA=      F    non-selfconsistent MetaGGA calc.

 Electronic Relaxation 1
   ENCUT  =  420.0 eV  30.87 Ry    5.56 a.u.   4.13  4.13  4.13*2*pi/ulx,y,z
   ENINI  =  420.0     initial cutoff
   ENAUG  =  359.0 eV  augmentation charge cutoff
   NELM   =     60;   NELMIN=  4; NELMDL= -5     # of ELM steps 
   EDIFF  = 0.1E-03   stopping-criterion for ELM
   LREAL  =      F    real-space projection
   NLSPLINE    = F    spline interpolate recip. space projectors
   LCOMPAT=      F    compatible to vasp.4.4
   GGA_COMPAT  = T    GGA compatible to vasp.4.4-vasp.4.6
   LMAXPAW     = -100 max onsite density
   LMAXMIX     =    2 max onsite mixed and CHGCAR
   VOSKOWN=      0    Vosko Wilk Nusair interpolation
   ROPT   =    0.00000
 Ionic relaxation
   EDIFFG = -.3E-01   stopping-criterion for IOM
   NSW    =      0    number of steps for IOM
   NBLOCK =      1;   KBLOCK =      1    inner block; outer block 
   IBRION =     -1    ionic relax: 0-MD 1-quasi-New 2-CG
   NFREE  =      1    steps in history (QN), initial steepest desc. (CG)
   ISIF   =      0    stress and relaxation
   IWAVPR =     10    prediction:  0-non 1-charg 2-wave 3-comb
   ISYM   =      0    0-nonsym 1-usesym 2-fastsym
   LCORR  =      T    Harris-Foulkes like correction to forces

   POTIM  = 0.5000    time-step for ionic-motion
   TEIN   =    0.0    initial temperature
   TEBEG  =    0.0;   TEEND  =   0.0 temperature during run
   SMASS  =  -3.00    Nose mass-parameter (am)
   estimated Nose-frequenzy (Omega)   =  0.10E-29 period in steps = 0.13E+47 mass=  -0.140E-27a.u.
   SCALEE = 1.0000    scale energy and forces
   NPACO  =    256;   APACO  = 16.0  distance and # of slots for P.C.
   PSTRESS=    0.0 pullay stress

  Mass of Ions in am
   POMASS = 195.08
  Ionic Valenz
   ZVAL   =  10.00
  Atomic Wigner-Seitz radii
   RWIGS  =  -1.00
  virtual crystal weights 
   VCA    =   1.00
   NELECT =      10.0000    total number of electrons
   NUPDOWN=      -1.0000    fix difference up-down

 DOS related values:
   EMIN   =  10.00;   EMAX   =-10.00  energy-range for DOS
   EFERMI =   0.00
   ISMEAR =     0;   SIGMA  =   0.05  broadening in eV -4-tet -1-fermi 0-gaus

 Electronic relaxation 2 (details)
   IALGO  =     38    algorithm
   LDIAG  =      T    sub-space diagonalisation (order eigenvalues)
   LSUBROT=      F    optimize rotation matrix (better conditioning)
   TURBO    =      0    0=normal 1=particle mesh
   IRESTART =      0    0=no restart 2=restart with 2 vectors
   NREBOOT  =      0    no. of reboots
   NMIN     =      0    reboot dimension
   EREF     =   0.00    reference energy to select bands
   IMIX   =      4    mixing-type and parameters
     AMIX     =   0.40;   BMIX     =  1.00
     AMIX_MAG =   1.60;   BMIX_MAG =  1.00
     AMIN     =   0.10
     WC   =   100.;   INIMIX=   1;  MIXPRE=   1;  MAXMIX= -45

 Intra band minimization:
   WEIMIN = 0.0000     energy-eigenvalue tresh-hold
   EBREAK =  0.21E-05  absolut break condition
   DEPER  =   0.30     relativ break condition  

   TIME   =   0.40     timestep for ELM

  volume/ion in A,a.u.               =      10.71        72.27
  Fermi-wavevector in a.u.,A,eV,Ry     =   1.600125  3.023797 34.836336  2.560398
  Thomas-Fermi vector in A             =   2.697310
 
 Write flags
   LWAVE        =      F    write WAVECAR
   LDOWNSAMPLE  =      F    k-point downsampling of WAVECAR
   LCHARG       =      T    write CHGCAR
   LVTOT        =      F    write LOCPOT, total local potential
   LVHAR        =      F    write LOCPOT, Hartree potential only
   LELF         =      F    write electronic localiz. function (ELF)
   LORBIT       =     11    0 simple, 1 ext, 2 COOP (PROOUT), +10 PAW based schemes


 Dipole corrections
   LMONO  =      F    monopole corrections only (constant potential shift)
   LDIPOL =      F    correct potential (dipole corrections)
   IDIPOL =      0    1-x, 2-y, 3-z, 4-all directions 
   EPSILON=  1.0000000 bulk dielectric constant

 Exchange correlation treatment:
   GGA     =    RP    GGA type
   LEXCH   =     9    internal setting for exchange type
   VOSKOWN=      0    Vosko Wilk Nusair interpolation
   LHFCALC =     F    Hartree Fock is set to
   LHFONE  =     F    Hartree Fock one center treatment
   AEXX    =    0.0000 exact exchange contribution

 Linear response parameters
   LEPSILON=     F    determine dielectric tensor
   LRPA    =     F    only Hartree local field effects (RPA)
   LNABLA  =     F    use nabla operator in PAW spheres
   LVEL    =     F    velocity operator in full k-point grid
   LINTERFAST=   F  fast interpolation
   KINTER  =     0    interpolate to denser k-point grid
   CSHIFT  =0.1000    complex shift for real part using Kramers Kronig
   OMEGAMAX=  -1.0    maximum frequency
   DEG_THRESHOLD= 0.2000000E-02 threshold for treating states as degnerate
   RTIME   =   -0.100 relaxation time in fs
  (WPLASMAI=    0.000 imaginary part of plasma frequency in eV, 0.658/RTIME)
   DFIELD  = 0.0000000 0.0000000 0.0000000 field for delta impulse in time
 
 Orbital magnetization related:
   ORBITALMAG=     F  switch on orbital magnetization
   LCHIMAG   =     F  perturbation theory with respect to B field
   DQ        =  0.001000  dq finite difference perturbation B field
   LLRAUG    =     F  two centre corrections for induced B field



--------------------------------------------------------------------------------------------------------


 Static calculation
 charge density and potential will be updated during run
 non-spin polarized calculation
 Variant of blocked Davidson
 Davidson routine will perform the subspace rotation
 perform sub-space diagonalisation
    after iterative eigenvector-optimisation
 modified Broyden-mixing scheme, WC =      100.0
 initial mixing is a Kerker type mixing with AMIX =  0.4000 and BMIX =      1.0000
 Hartree-type preconditioning will be used
 using additional bands             7
 reciprocal scheme for non local part
 use partial core corrections
 calculate Harris-corrections to forces 
   (improved forces if not selfconsistent)
 use gradient corrections 
 use of overlap-Matrix (Vanderbilt PP)
 Gauss-broadening in eV      SIGMA  =   0.05


--------------------------------------------------------------------------------------------------------


  energy-cutoff  :      420.00
  volume of cell :       10.71
      direct lattice vectors                 reciprocal lattice vectors
     2.142678000  0.000004000  1.237088000     0.466706491 -0.165006467 -0.000000865
     0.714231000  2.020134000  1.237088000    -0.000000462  0.495017321 -0.000000800
     0.000006000  0.000004000  2.474157000    -0.233354806 -0.165006694  0.404178902

  length of vectors
     2.474157580  2.474157234  2.474157000     0.495017255  0.495017321  0.495017434


 
 k-points in units of 2pi/SCALE and weight: read from INCAR                         
   0.00000000  0.00000000  0.00000000       0.003
   0.06667236 -0.02357235 -0.00000012       0.006
  -0.00000007  0.07071676 -0.00000011       0.006
  -0.03333640 -0.02357238  0.05773984       0.006
   0.03333589  0.02357202  0.05773961       0.006
   0.13334471 -0.04714470 -0.00000025       0.006
  -0.00000013  0.14143352 -0.00000023       0.006
  -0.06667280 -0.04714477  0.11547969       0.006
   0.06667178  0.04714405  0.11547921       0.006
   0.20001707 -0.07071706 -0.00000037       0.006
  -0.00000020  0.21215028 -0.00000034       0.006
  -0.10000920 -0.07071715  0.17321953       0.006
   0.10000767  0.07071607  0.17321882       0.006
   0.06667229  0.04714441 -0.00000024       0.006
  -0.03333647  0.04714438  0.05773973       0.006
   0.03333595 -0.04714474  0.05773972       0.006
   0.13334465  0.02357206 -0.00000036       0.006
  -0.03333653  0.11786114  0.05773961       0.006
  -0.00000045 -0.07071712  0.11547956       0.006
   0.10000869  0.07071679 -0.05774008       0.006
   0.06667184 -0.02357271  0.11547932       0.006
   0.06667222  0.11786117 -0.00000035       0.006
   0.10000882 -0.07071673 -0.05773985       0.006
   0.10000818  0.07071643  0.05773937       0.006
  -0.06667287  0.02357199  0.11547957       0.006
  -0.03333602  0.11786150 -0.05773983       0.006
  -0.00000058  0.07071640  0.11547933       0.006
   0.10000831 -0.07071709  0.05773960       0.006
   0.20001700 -0.00000030 -0.00000049       0.006
  -0.03333660  0.18857790  0.05773950       0.006
  -0.03333685 -0.09428951  0.17321941       0.006
   0.13334509  0.09428918 -0.11547992       0.006
   0.10000773 -0.00000069  0.17321893       0.006
   0.06667216  0.18857793 -0.00000047       0.006
   0.16668118 -0.09428908 -0.05773998       0.006
   0.13334407  0.09428845  0.11547897       0.006
  -0.10000927 -0.00000039  0.17321942       0.006
  -0.03333609  0.18857826 -0.05773995       0.006
   0.03333531  0.09428842  0.17321894       0.006
   0.16668067 -0.09428944  0.05773947       0.006
  -0.20001713  0.14143382  0.00000026       0.006
  -0.03333620 -0.23572267  0.05774019       0.006
   0.16668156  0.04714480 -0.17321965       0.006
   0.16668149  0.11786156 -0.17321977       0.006
  -0.10000806  0.35358449 -0.17321950       0.006
   0.06667255 -0.23572263  0.00000022       0.006
   0.23335353 -0.11786143 -0.05774010       0.006
  -0.30002607 -0.21215038  0.17322024       0.006
   0.10000914  0.14143391 -0.17321964       0.006
  -0.03333615  0.25929502 -0.05774006       0.006
   0.30002647 -0.21215018 -0.17321956       0.006
  -0.23335347  0.04714467  0.05774021       0.006
  -0.13334478  0.11786146  0.00000013       0.006
  -0.03333627 -0.16500591  0.05774007       0.006
   0.13334516  0.02357242 -0.11547981       0.006
  -0.03333691 -0.02357275  0.17321929       0.006
  -0.06667171 -0.11786081 -0.11547910       0.006
   0.06667249 -0.16500587  0.00000011       0.006
  -0.16668060  0.02357268 -0.05773936       0.006
  -0.03333538 -0.02357166 -0.17321905       0.006
   0.06667274  0.11786153 -0.11547980       0.006
  -0.03333576 -0.16500554 -0.05773938       0.006
  -0.13334413 -0.02357169 -0.11547909       0.006
  -0.16668111  0.02357232  0.05774009       0.006
  -0.06667242  0.09428911  0.00000001       0.006
  -0.03333633 -0.09428914  0.05773996       0.006
   0.10000876  0.00000003 -0.05773997       0.006
  -0.00000051 -0.00000036  0.11547945       0.006
  -0.03333582 -0.09428878 -0.05773949       0.006
  -0.10000824  0.00000033 -0.05773948       0.006
   0.13334458  0.09428882 -0.00000048       0.006
  -0.06667293  0.09428875  0.11547946       0.006
   0.06667191 -0.09428947  0.11547944       0.006
   0.20001694  0.07071646 -0.00000060       0.006
  -0.06667300  0.16500551  0.11547934       0.006
   0.03333551 -0.11786186  0.17321928       0.006
   0.16668098  0.11786120 -0.05774032       0.006
   0.10000780 -0.07071745  0.17321904       0.006
   0.13334451  0.16500558 -0.00000059       0.006
   0.13334529 -0.11786110 -0.11547958       0.006
   0.16668047  0.11786084  0.05773913       0.006
  -0.10000933  0.07071637  0.17321930       0.006
  -0.06667198  0.16500623 -0.11547955       0.006
  -0.03333704  0.11786077  0.17321906       0.006
   0.13334427 -0.11786183  0.11547932       0.006
  -0.20001720  0.21215058  0.00000014       0.006
  -0.06667260 -0.25929505  0.11548003       0.006
   0.23335391  0.02357245 -0.17321978       0.006
   0.20001738  0.14143359 -0.11548016       0.006
  -0.10000800  0.28286773 -0.17321939       0.006
   0.13334491 -0.25929499  0.00000010       0.006
   0.20001765 -0.14143346 -0.11547970       0.006
  -0.26668967 -0.18857799  0.11548040       0.006
   0.10000907  0.21215067 -0.17321976       0.006
  -0.06667204  0.23572299 -0.11547967       0.006
   0.23335411 -0.18857783 -0.17321943       0.006
  -0.26668987  0.02357229  0.11548006       0.006
  -0.13334484  0.18857822  0.00000002       0.006
  -0.06667267 -0.18857829  0.11547992       0.006
   0.20001751  0.00000007 -0.11547993       0.006
   0.23335378  0.16500597 -0.17322001       0.006
  -0.06667211  0.30643975 -0.11547978       0.006
   0.26669000 -0.16500581 -0.11547983       0.006
   0.20001687  0.14143322 -0.00000071       0.006
  -0.10000940  0.14143313  0.17321919       0.006
   0.10000786 -0.14143421  0.17321916       0.006
  -0.20001727  0.28286734  0.00000003       0.006
  -0.10000900 -0.28286743  0.17321987       0.006
   0.30002627  0.00000010 -0.17321990       0.006
   0.23335327  0.16500561 -0.05774056       0.006
  -0.10000793  0.21215097 -0.17321927       0.006
   0.16668176 -0.16500548 -0.17321931       0.006
   0.16668053  0.04714408  0.05773924       0.006
  -0.00000064  0.14143316  0.11547922       0.006
   0.03333544 -0.04714510  0.17321917       0.006
   0.16668105  0.04714444 -0.05774020       0.006
   0.13334420 -0.04714507  0.11547920       0.006
   0.10000889 -0.14143349 -0.05773974       0.006
   0.10000862  0.14143355 -0.05774020       0.006
   0.13334522 -0.04714434 -0.11547970       0.006
   0.10000811  0.14143319  0.05773925       0.006
   0.00000038  0.14143388 -0.11547968       0.006
  -0.10000838  0.14143385 -0.05773971       0.006
  -0.03333698  0.04714401  0.17321918       0.006
  -0.23335360  0.18857819  0.05773999       0.006
  -0.00000025 -0.28286740  0.11547991       0.006
   0.23335385  0.09428921 -0.17321989       0.006
   0.20001745  0.07071683 -0.11548005       0.006
  -0.30002640  0.14143342  0.17321967       0.006
   0.10000895 -0.21215025 -0.05773962       0.006
   0.10000856  0.21215031 -0.05774031       0.006
   0.20001758 -0.07071670 -0.11547982       0.006
  -0.30002614 -0.14143362  0.17322013       0.006
   0.13334446 -0.33001211  0.11547966       0.006
   0.03333678  0.16500627 -0.17321952       0.006
  -0.16668124  0.16500584  0.05773986       0.006
  -0.16668162  0.02357196  0.17321954       0.006
  -0.10000844  0.21215061 -0.05773982       0.006
   0.26669007 -0.23572257 -0.11547971       0.006
   0.23335372  0.23572273 -0.17322012       0.006
  -0.23335340 -0.02357209  0.05774033       0.006
  -0.00000031 -0.21215064  0.11547979       0.006
   0.16668073 -0.16500620  0.05773959       0.006
  -0.13334503 -0.16500594  0.11548004       0.006
  -0.03333571  0.33001214 -0.17321963       0.006
   0.26668994 -0.09428905 -0.11547994       0.006
  -0.10000851  0.28286737 -0.05773994       0.006
  -0.16668143 -0.18857832  0.17321988       0.006
  -0.23335367  0.25929495  0.05773987       0.006
  -0.03333665 -0.30643979  0.17321975       0.006
   0.30002620  0.07071686 -0.17322001       0.006
   0.23335334  0.09428885 -0.05774044       0.006
  -0.30002634  0.07071666  0.17321979       0.006
   0.13334536 -0.18857786 -0.11547947       0.006
   0.16668091  0.18857796 -0.05774043       0.006
   0.16668169 -0.09428872 -0.17321942       0.006
   0.16668086 -0.30643972  0.05773982       0.006
  -0.03333557  0.18857862 -0.17321940       0.006
  -0.13334433  0.18857859 -0.11547943       0.006
   0.16668136  0.25929508 -0.17322000       0.006
  -0.16668131  0.23572260  0.05773975       0.006
  -0.03333671 -0.23572303  0.17321963       0.006
   0.26668980  0.04714447 -0.11548017       0.006
   0.26668974  0.11786123 -0.11548029       0.006
  -0.03333564  0.25929538 -0.17321951       0.006
   0.13334496  0.23572270 -0.11548015       0.006
   0.23335405 -0.11786107 -0.17321955       0.006
   0.13334440 -0.25929535  0.11547954       0.006
  -0.23335398  0.04714431  0.17321966       0.006
  -0.20001771  0.21215022  0.11547959       0.006
   0.20001732  0.21215035 -0.11548028       0.006
   0.16668080 -0.23572296  0.05773970       0.006
 
 k-points in reciprocal lattice and weights: read from INCAR                         
   0.00000000  0.00000000  0.00000000       0.003
   0.14285714  0.00000000  0.00000000       0.006
   0.00000000  0.14285714  0.00000000       0.006
   0.00000000  0.00000000  0.14285714       0.006
   0.14285714  0.14285714  0.14285714       0.006
   0.28571429  0.00000000  0.00000000       0.006
   0.00000000  0.28571429  0.00000000       0.006
   0.00000000  0.00000000  0.28571429       0.006
   0.28571429  0.28571429  0.28571429       0.006
   0.42857143  0.00000000  0.00000000       0.006
   0.00000000  0.42857143  0.00000000       0.006
   0.00000000  0.00000000  0.42857143       0.006
   0.42857143  0.42857143  0.42857143       0.006
   0.14285714  0.14285714  0.00000000       0.006
   0.00000000  0.14285714  0.14285714       0.006
   0.14285714  0.00000000  0.14285714       0.006
   0.28571429  0.14285714  0.00000000       0.006
   0.00000000  0.28571429  0.14285714       0.006
   0.14285714  0.00000000  0.28571429       0.006
   0.14285714  0.14285714 -0.14285714       0.006
   0.28571429  0.14285714  0.28571429       0.006
   0.14285714  0.28571429  0.00000000       0.006
   0.14285714 -0.14285714 -0.14285714       0.006
   0.28571429  0.28571429  0.14285714       0.006
   0.00000000  0.14285714  0.28571429       0.006
  -0.14285714  0.14285714 -0.14285714       0.006
   0.14285714  0.28571429  0.28571429       0.006
   0.28571429  0.00000000  0.14285714       0.006
   0.42857143  0.14285714  0.00000000       0.006
   0.00000000  0.42857143  0.14285714       0.006
   0.14285714  0.00000000  0.42857143       0.006
   0.14285714  0.14285714 -0.28571429       0.006
   0.42857143  0.28571429  0.42857143       0.006
   0.14285714  0.42857143  0.00000000       0.006
   0.28571429 -0.14285714 -0.14285714       0.006
   0.42857143  0.42857143  0.28571429       0.006
   0.00000000  0.14285714  0.42857143       0.006
  -0.14285714  0.28571429 -0.14285714       0.006
   0.28571429  0.42857143  0.42857143       0.006
   0.42857143  0.00000000  0.14285714       0.006
  -0.42857143  0.14285714  0.00000000       0.006
   0.00000000 -0.42857143  0.14285714       0.006
   0.14285714  0.00000000 -0.42857143       0.006
   0.14285714  0.14285714 -0.42857143       0.006
  -0.42857143  0.42857143 -0.42857143       0.006
   0.14285714 -0.42857143  0.00000000       0.006
   0.42857143 -0.14285714 -0.14285714       0.006
  -0.42857143 -0.42857143  0.42857143       0.006
   0.00000000  0.14285714 -0.42857143       0.006
  -0.14285714  0.42857143 -0.14285714       0.006
   0.42857143 -0.42857143 -0.42857143       0.006
  -0.42857143  0.00000000  0.14285714       0.006
  -0.28571429  0.14285714  0.00000000       0.006
   0.00000000 -0.28571429  0.14285714       0.006
   0.14285714  0.00000000 -0.28571429       0.006
   0.14285714  0.14285714  0.42857143       0.006
  -0.28571429 -0.42857143 -0.28571429       0.006
   0.14285714 -0.28571429  0.00000000       0.006
  -0.42857143 -0.14285714 -0.14285714       0.006
  -0.28571429 -0.28571429 -0.42857143       0.006
   0.00000000  0.14285714 -0.28571429       0.006
  -0.14285714 -0.42857143 -0.14285714       0.006
  -0.42857143 -0.28571429 -0.28571429       0.006
  -0.28571429  0.00000000  0.14285714       0.006
  -0.14285714  0.14285714  0.00000000       0.006
   0.00000000 -0.14285714  0.14285714       0.006
   0.14285714  0.00000000 -0.14285714       0.006
   0.14285714  0.14285714  0.28571429       0.006
  -0.14285714 -0.28571429 -0.14285714       0.006
  -0.28571429 -0.14285714 -0.14285714       0.006
   0.28571429  0.28571429  0.00000000       0.006
   0.00000000  0.28571429  0.28571429       0.006
   0.28571429  0.00000000  0.28571429       0.006
   0.42857143  0.28571429  0.00000000       0.006
   0.00000000  0.42857143  0.28571429       0.006
   0.28571429  0.00000000  0.42857143       0.006
   0.28571429  0.28571429 -0.14285714       0.006
   0.42857143  0.14285714  0.42857143       0.006
   0.28571429  0.42857143  0.00000000       0.006
   0.14285714 -0.28571429 -0.28571429       0.006
   0.42857143  0.42857143  0.14285714       0.006
   0.00000000  0.28571429  0.42857143       0.006
  -0.28571429  0.14285714 -0.28571429       0.006
   0.14285714  0.42857143  0.42857143       0.006
   0.42857143  0.00000000  0.28571429       0.006
  -0.42857143  0.28571429  0.00000000       0.006
   0.00000000 -0.42857143  0.28571429       0.006
   0.28571429  0.00000000 -0.42857143       0.006
   0.28571429  0.28571429 -0.28571429       0.006
  -0.42857143  0.28571429 -0.42857143       0.006
   0.28571429 -0.42857143  0.00000000       0.006
   0.28571429 -0.28571429 -0.28571429       0.006
  -0.42857143 -0.42857143  0.28571429       0.006
   0.00000000  0.28571429 -0.42857143       0.006
  -0.28571429  0.28571429 -0.28571429       0.006
   0.28571429 -0.42857143 -0.42857143       0.006
  -0.42857143  0.00000000  0.28571429       0.006
  -0.28571429  0.28571429  0.00000000       0.006
   0.00000000 -0.28571429  0.28571429       0.006
   0.28571429  0.00000000 -0.28571429       0.006
   0.28571429  0.28571429 -0.42857143       0.006
  -0.28571429  0.42857143 -0.28571429       0.006
   0.42857143 -0.28571429 -0.28571429       0.006
   0.42857143  0.42857143  0.00000000       0.006
   0.00000000  0.42857143  0.42857143       0.006
   0.42857143  0.00000000  0.42857143       0.006
  -0.42857143  0.42857143  0.00000000       0.006
   0.00000000 -0.42857143  0.42857143       0.006
   0.42857143  0.00000000 -0.42857143       0.006
   0.42857143  0.42857143 -0.14285714       0.006
  -0.42857143  0.14285714 -0.42857143       0.006
   0.14285714 -0.42857143 -0.42857143       0.006
   0.42857143  0.28571429  0.14285714       0.006
   0.14285714  0.42857143  0.28571429       0.006
   0.28571429  0.14285714  0.42857143       0.006
   0.28571429  0.14285714 -0.14285714       0.006
   0.42857143  0.14285714  0.28571429       0.006
   0.14285714 -0.28571429 -0.14285714       0.006
   0.14285714  0.28571429 -0.14285714       0.006
   0.14285714 -0.14285714 -0.28571429       0.006
   0.28571429  0.42857143  0.14285714       0.006
  -0.14285714  0.14285714 -0.28571429       0.006
  -0.28571429  0.14285714 -0.14285714       0.006
   0.14285714  0.28571429  0.42857143       0.006
  -0.42857143  0.28571429  0.14285714       0.006
   0.14285714 -0.42857143  0.28571429       0.006
   0.28571429  0.14285714 -0.42857143       0.006
   0.28571429  0.14285714 -0.28571429       0.006
  -0.42857143  0.28571429  0.42857143       0.006
   0.14285714 -0.42857143 -0.14285714       0.006
   0.14285714  0.42857143 -0.14285714       0.006
   0.28571429 -0.14285714 -0.28571429       0.006
  -0.42857143 -0.28571429  0.42857143       0.006
   0.42857143 -0.42857143  0.28571429       0.006
  -0.14285714  0.14285714 -0.42857143       0.006
  -0.28571429  0.28571429  0.14285714       0.006
  -0.14285714  0.14285714  0.42857143       0.006
  -0.28571429  0.28571429 -0.14285714       0.006
   0.42857143 -0.42857143 -0.28571429       0.006
   0.28571429  0.42857143 -0.42857143       0.006
  -0.42857143 -0.14285714  0.14285714       0.006
   0.14285714 -0.28571429  0.28571429       0.006
   0.42857143 -0.14285714  0.14285714       0.006
  -0.14285714 -0.28571429  0.28571429       0.006
  -0.28571429  0.42857143 -0.42857143       0.006
   0.42857143 -0.14285714 -0.28571429       0.006
  -0.28571429  0.42857143 -0.14285714       0.006
  -0.14285714 -0.28571429  0.42857143       0.006
  -0.42857143  0.42857143  0.14285714       0.006
   0.14285714 -0.42857143  0.42857143       0.006
   0.42857143  0.14285714 -0.42857143       0.006
   0.42857143  0.28571429 -0.14285714       0.006
  -0.42857143  0.14285714  0.42857143       0.006
   0.14285714 -0.42857143 -0.28571429       0.006
   0.28571429  0.42857143 -0.14285714       0.006
   0.14285714 -0.28571429 -0.42857143       0.006
   0.42857143 -0.42857143  0.14285714       0.006
  -0.28571429  0.14285714 -0.42857143       0.006
  -0.42857143  0.14285714 -0.28571429       0.006
   0.14285714  0.42857143 -0.42857143       0.006
  -0.28571429  0.42857143  0.14285714       0.006
   0.14285714 -0.28571429  0.42857143       0.006
   0.42857143  0.14285714 -0.28571429       0.006
   0.42857143  0.28571429 -0.28571429       0.006
  -0.28571429  0.28571429 -0.42857143       0.006
   0.14285714  0.42857143 -0.28571429       0.006
   0.28571429 -0.28571429 -0.42857143       0.006
   0.42857143 -0.28571429  0.28571429       0.006
  -0.28571429  0.14285714  0.42857143       0.006
  -0.28571429  0.42857143  0.28571429       0.006
   0.28571429  0.42857143 -0.28571429       0.006
   0.42857143 -0.28571429  0.14285714       0.006
 
 position of ions in fractional coordinates (direct lattice) 
   0.00000000  0.00000000  0.00000000
 
 position of ions in cartesian coordinates  (Angst):
   0.00000000  0.00000000  0.00000000
 


--------------------------------------------------------------------------------------------------------


 k-point   1 :   0.0000 0.0000 0.0000  plane waves:     181
 k-point   2 :   0.1429 0.0000 0.0000  plane waves:     193
 k-point   3 :   0.0000 0.1429 0.0000  plane waves:     193
 k-point   4 :   0.0000 0.0000 0.1429  plane waves:     193
 k-point   5 :   0.1429 0.1429 0.1429  plane waves:     193
 k-point   6 :   0.2857 0.0000 0.0000  plane waves:     205
 k-point   7 :   0.0000 0.2857 0.0000  plane waves:     205
 k-point   8 :   0.0000 0.0000 0.2857  plane waves:     205
 k-point   9 :   0.2857 0.2857 0.2857  plane waves:     205
 k-point  10 :   0.4286 0.0000 0.0000  plane waves:     213
 k-point  11 :   0.0000 0.4286 0.0000  plane waves:     213
 k-point  12 :   0.0000 0.0000 0.4286  plane waves:     213
 k-point  13 :   0.4286 0.4286 0.4286  plane waves:     213
 k-point  14 :   0.1429 0.1429 0.0000  plane waves:     202
 k-point  15 :   0.0000 0.1429 0.1429  plane waves:     202
 k-point  16 :   0.1429 0.0000 0.1429  plane waves:     202
 k-point  17 :   0.2857 0.1429 0.0000  plane waves:     204
 k-point  18 :   0.0000 0.2857 0.1429  plane waves:     204
 k-point  19 :   0.1429 0.0000 0.2857  plane waves:     204
 k-point  20 :   0.1429 0.1429-0.1429  plane waves:     204
 k-point  21 :   0.2857 0.1429 0.2857  plane waves:     204
 k-point  22 :   0.1429 0.2857 0.0000  plane waves:     204
 k-point  23 :   0.1429-0.1429-0.1429  plane waves:     204
 k-point  24 :   0.2857 0.2857 0.1429  plane waves:     204
 k-point  25 :   0.0000 0.1429 0.2857  plane waves:     204
 k-point  26 :  -0.1429 0.1429-0.1429  plane waves:     204
 k-point  27 :   0.1429 0.2857 0.2857  plane waves:     204
 k-point  28 :   0.2857 0.0000 0.1429  plane waves:     204
 k-point  29 :   0.4286 0.1429 0.0000  plane waves:     204
 k-point  30 :   0.0000 0.4286 0.1429  plane waves:     204
 k-point  31 :   0.1429 0.0000 0.4286  plane waves:     204
 k-point  32 :   0.1429 0.1429-0.2857  plane waves:     204
 k-point  33 :   0.4286 0.2857 0.4286  plane waves:     204
 k-point  34 :   0.1429 0.4286 0.0000  plane waves:     204
 k-point  35 :   0.2857-0.1429-0.1429  plane waves:     204
 k-point  36 :   0.4286 0.4286 0.2857  plane waves:     204
 k-point  37 :   0.0000 0.1429 0.4286  plane waves:     204
 k-point  38 :  -0.1429 0.2857-0.1429  plane waves:     204
 k-point  39 :   0.2857 0.4286 0.4286  plane waves:     204
 k-point  40 :   0.4286 0.0000 0.1429  plane waves:     204
 k-point  41 :  -0.4286 0.1429 0.0000  plane waves:     213
 k-point  42 :   0.0000-0.4286 0.1429  plane waves:     213
 k-point  43 :   0.1429 0.0000-0.4286  plane waves:     213
 k-point  44 :   0.1429 0.1429-0.4286  plane waves:     213
 k-point  45 :  -0.4286 0.4286-0.4286  plane waves:     213
 k-point  46 :   0.1429-0.4286 0.0000  plane waves:     213
 k-point  47 :   0.4286-0.1429-0.1429  plane waves:     213
 k-point  48 :  -0.4286-0.4286 0.4286  plane waves:     213
 k-point  49 :   0.0000 0.1429-0.4286  plane waves:     213
 k-point  50 :  -0.1429 0.4286-0.1429  plane waves:     213
 k-point  51 :   0.4286-0.4286-0.4286  plane waves:     213
 k-point  52 :  -0.4286 0.0000 0.1429  plane waves:     213
 k-point  53 :  -0.2857 0.1429 0.0000  plane waves:     210
 k-point  54 :   0.0000-0.2857 0.1429  plane waves:     210
 k-point  55 :   0.1429 0.0000-0.2857  plane waves:     210
 k-point  56 :   0.1429 0.1429 0.4286  plane waves:     210
 k-point  57 :  -0.2857-0.4286-0.2857  plane waves:     210
 k-point  58 :   0.1429-0.2857 0.0000  plane waves:     210
 k-point  59 :  -0.4286-0.1429-0.1429  plane waves:     210
 k-point  60 :  -0.2857-0.2857-0.4286  plane waves:     210
 k-point  61 :   0.0000 0.1429-0.2857  plane waves:     210
 k-point  62 :  -0.1429-0.4286-0.1429  plane waves:     210
 k-point  63 :  -0.4286-0.2857-0.2857  plane waves:     210
 k-point  64 :  -0.2857 0.0000 0.1429  plane waves:     210
 k-point  65 :  -0.1429 0.1429 0.0000  plane waves:     208
 k-point  66 :   0.0000-0.1429 0.1429  plane waves:     208
 k-point  67 :   0.1429 0.0000-0.1429  plane waves:     208
 k-point  68 :   0.1429 0.1429 0.2857  plane waves:     208
 k-point  69 :  -0.1429-0.2857-0.1429  plane waves:     208
 k-point  70 :  -0.2857-0.1429-0.1429  plane waves:     208
 k-point  71 :   0.2857 0.2857 0.0000  plane waves:     218
 k-point  72 :   0.0000 0.2857 0.2857  plane waves:     218
 k-point  73 :   0.2857 0.0000 0.2857  plane waves:     218
 k-point  74 :   0.4286 0.2857 0.0000  plane waves:     209
 k-point  75 :   0.0000 0.4286 0.2857  plane waves:     209
 k-point  76 :   0.2857 0.0000 0.4286  plane waves:     209
 k-point  77 :   0.2857 0.2857-0.1429  plane waves:     209
 k-point  78 :   0.4286 0.1429 0.4286  plane waves:     209
 k-point  79 :   0.2857 0.4286 0.0000  plane waves:     209
 k-point  80 :   0.1429-0.2857-0.2857  plane waves:     209
 k-point  81 :   0.4286 0.4286 0.1429  plane waves:     209
 k-point  82 :   0.0000 0.2857 0.4286  plane waves:     209
 k-point  83 :  -0.2857 0.1429-0.2857  plane waves:     209
 k-point  84 :   0.1429 0.4286 0.4286  plane waves:     209
 k-point  85 :   0.4286 0.0000 0.2857  plane waves:     209
 k-point  86 :  -0.4286 0.2857 0.0000  plane waves:     217
 k-point  87 :   0.0000-0.4286 0.2857  plane waves:     217
 k-point  88 :   0.2857 0.0000-0.4286  plane waves:     217
 k-point  89 :   0.2857 0.2857-0.2857  plane waves:     217
 k-point  90 :  -0.4286 0.2857-0.4286  plane waves:     217
 k-point  91 :   0.2857-0.4286 0.0000  plane waves:     217
 k-point  92 :   0.2857-0.2857-0.2857  plane waves:     217
 k-point  93 :  -0.4286-0.4286 0.2857  plane waves:     217
 k-point  94 :   0.0000 0.2857-0.4286  plane waves:     217
 k-point  95 :  -0.2857 0.2857-0.2857  plane waves:     217
 k-point  96 :   0.2857-0.4286-0.4286  plane waves:     217
 k-point  97 :  -0.4286 0.0000 0.2857  plane waves:     217
 k-point  98 :  -0.2857 0.2857 0.0000  plane waves:     208
 k-point  99 :   0.0000-0.2857 0.2857  plane waves:     208
 k-point 100 :   0.2857 0.0000-0.2857  plane waves:     208
 k-point 101 :   0.2857 0.2857-0.4286  plane waves:     208
 k-point 102 :  -0.2857 0.4286-0.2857  plane waves:     208
 k-point 103 :   0.4286-0.2857-0.2857  plane waves:     208
 k-point 104 :   0.4286 0.4286 0.0000  plane waves:     214
 k-point 105 :   0.0000 0.4286 0.4286  plane waves:     214
 k-point 106 :   0.4286 0.0000 0.4286  plane waves:     214
 k-point 107 :  -0.4286 0.4286 0.0000  plane waves:     214
 k-point 108 :   0.0000-0.4286 0.4286  plane waves:     214
 k-point 109 :   0.4286 0.0000-0.4286  plane waves:     214
 k-point 110 :   0.4286 0.4286-0.1429  plane waves:     214
 k-point 111 :  -0.4286 0.1429-0.4286  plane waves:     214
 k-point 112 :   0.1429-0.4286-0.4286  plane waves:     214
 k-point 113 :   0.4286 0.2857 0.1429  plane waves:     210
 k-point 114 :   0.1429 0.4286 0.2857  plane waves:     210
 k-point 115 :   0.2857 0.1429 0.4286  plane waves:     210
 k-point 116 :   0.2857 0.1429-0.1429  plane waves:     210
 k-point 117 :   0.4286 0.1429 0.2857  plane waves:     210
 k-point 118 :   0.1429-0.2857-0.1429  plane waves:     210
 k-point 119 :   0.1429 0.2857-0.1429  plane waves:     210
 k-point 120 :   0.1429-0.1429-0.2857  plane waves:     210
 k-point 121 :   0.2857 0.4286 0.1429  plane waves:     210
 k-point 122 :  -0.1429 0.1429-0.2857  plane waves:     210
 k-point 123 :  -0.2857 0.1429-0.1429  plane waves:     210
 k-point 124 :   0.1429 0.2857 0.4286  plane waves:     210
 k-point 125 :  -0.4286 0.2857 0.1429  plane waves:     210
 k-point 126 :   0.1429-0.4286 0.2857  plane waves:     210
 k-point 127 :   0.2857 0.1429-0.4286  plane waves:     210
 k-point 128 :   0.2857 0.1429-0.2857  plane waves:     210
 k-point 129 :  -0.4286 0.2857 0.4286  plane waves:     210
 k-point 130 :   0.1429-0.4286-0.1429  plane waves:     210
 k-point 131 :   0.1429 0.4286-0.1429  plane waves:     210
 k-point 132 :   0.2857-0.1429-0.2857  plane waves:     210
 k-point 133 :  -0.4286-0.2857 0.4286  plane waves:     210
 k-point 134 :   0.4286-0.4286 0.2857  plane waves:     210
 k-point 135 :  -0.1429 0.1429-0.4286  plane waves:     210
 k-point 136 :  -0.2857 0.2857 0.1429  plane waves:     210
 k-point 137 :  -0.1429 0.1429 0.4286  plane waves:     210
 k-point 138 :  -0.2857 0.2857-0.1429  plane waves:     210
 k-point 139 :   0.4286-0.4286-0.2857  plane waves:     210
 k-point 140 :   0.2857 0.4286-0.4286  plane waves:     210
 k-point 141 :  -0.4286-0.1429 0.1429  plane waves:     210
 k-point 142 :   0.1429-0.2857 0.2857  plane waves:     210
 k-point 143 :   0.4286-0.1429 0.1429  plane waves:     210
 k-point 144 :  -0.1429-0.2857 0.2857  plane waves:     210
 k-point 145 :  -0.2857 0.4286-0.4286  plane waves:     210
 k-point 146 :   0.4286-0.1429-0.2857  plane waves:     210
 k-point 147 :  -0.2857 0.4286-0.1429  plane waves:     210
 k-point 148 :  -0.1429-0.2857 0.4286  plane waves:     210
 k-point 149 :  -0.4286 0.4286 0.1429  plane waves:     210
 k-point 150 :   0.1429-0.4286 0.4286  plane waves:     210
 k-point 151 :   0.4286 0.1429-0.4286  plane waves:     210
 k-point 152 :   0.4286 0.2857-0.1429  plane waves:     210
 k-point 153 :  -0.4286 0.1429 0.4286  plane waves:     210
 k-point 154 :   0.1429-0.4286-0.2857  plane waves:     210
 k-point 155 :   0.2857 0.4286-0.1429  plane waves:     210
 k-point 156 :   0.1429-0.2857-0.4286  plane waves:     210
 k-point 157 :   0.4286-0.4286 0.1429  plane waves:     210
 k-point 158 :  -0.2857 0.1429-0.4286  plane waves:     210
 k-point 159 :  -0.4286 0.1429-0.2857  plane waves:     210
 k-point 160 :   0.1429 0.4286-0.4286  plane waves:     210
 k-point 161 :  -0.2857 0.4286 0.1429  plane waves:     206
 k-point 162 :   0.1429-0.2857 0.4286  plane waves:     206
 k-point 163 :   0.4286 0.1429-0.2857  plane waves:     206
 k-point 164 :   0.4286 0.2857-0.2857  plane waves:     206
 k-point 165 :  -0.2857 0.2857-0.4286  plane waves:     206
 k-point 166 :   0.1429 0.4286-0.2857  plane waves:     206
 k-point 167 :   0.2857-0.2857-0.4286  plane waves:     206
 k-point 168 :   0.4286-0.2857 0.2857  plane waves:     206
 k-point 169 :  -0.2857 0.1429 0.4286  plane waves:     206
 k-point 170 :  -0.2857 0.4286 0.2857  plane waves:     206
 k-point 171 :   0.2857 0.4286-0.2857  plane waves:     206
 k-point 172 :   0.4286-0.2857 0.1429  plane waves:     206

 maximum and minimum number of plane-waves per node :        66       37

 maximum number of plane-waves:       218
 maximum index in each direction: 
   IXMAX=    4   IYMAX=    4   IZMAX=    4
   IXMIN=   -4   IYMIN=   -4   IZMIN=   -4


 parallel 3D FFT for wavefunctions:
    minimum data exchange during FFTs selected (reduces bandwidth)
 parallel 3D FFT for charge:
    minimum data exchange during FFTs selected (reduces bandwidth)


 total amount of memory used by VASP MPI-rank0    32554. kBytes
=======================================================================

   base      :      30000. kBytes
   nonl-proj :       1685. kBytes
   fftplans  :         52. kBytes
   grid      :         76. kBytes
   one-center:         15. kBytes
   wavefun   :        726. kBytes
 
     INWAV:  cpu time    0.0000: real time    0.0000
 Broyden mixing: mesh for mixing (old mesh)
   NGX =  9   NGY =  9   NGZ =  9
  (NGX  = 24   NGY  = 24   NGZ  = 24)
  gives a total of    729 points

 initial charge density was supplied:
 charge density of overlapping atoms calculated
 number of electron      10.0000000 magnetization 
 keeping initial charge density in first step


--------------------------------------------------------------------------------------------------------


 Maximum index for augmentation-charges           838 (set IRDMAX)


--------------------------------------------------------------------------------------------------------


 First call to EWALD:  gamma=   0.804
 Maximum number of real-space cells 3x 3x 3
 Maximum number of reciprocal cells 3x 3x 3

    FEWALD:  cpu time    0.0008: real time    0.0008


--------------------------------------- Iteration      1(   1)  ---------------------------------------


    POTLOK:  cpu time    0.0031: real time    0.0031
    SETDIJ:  cpu time    0.0045: real time    0.0045
     EDDAV:  cpu time    0.6385: real time    0.6423
       DOS:  cpu time    0.0020: real time    0.0020
    --------------------------------------------
      LOOP:  cpu time    0.6481: real time    0.6520

 eigenvalue-minimisations  :  4324
 total energy-change (2. order) : 0.3973691E+02  (-0.4682143E+03)
 number of electron      10.0000000 magnetization 
 augmentation part       10.0000000 magnetization 

 Free energy of the ion-electron system (eV)
  ---------------------------------------------------
  alpha Z        PSCENC =        88.76192870
  Ewald energy   TEWEN  =      -943.43351802
  -Hartree energ DENC   =       -44.63009305
  -exchange      EXHF   =         0.00000000
  -V(xc)+E(xc)   XCENC  =         5.39818990
  PAW double counting   =       696.70595042     -667.45827301
  entropy T*S    EENTRO =        -0.00119600
  eigenvalues    EBANDS =       176.07471283
  atomic energy  EATOM  =       728.31920932
  Solvation  Ediel_sol  =         0.00000000
  ---------------------------------------------------
  free energy    TOTEN  =        39.73691109 eV

  energy without entropy =       39.73810709  energy(sigma->0) =       39.73750909


--------------------------------------------------------------------------------------------------------




--------------------------------------- Iteration      1(   2)  ---------------------------------------


     EDDAV:  cpu time    0.7185: real time    0.7197
       DOS:  cpu time    0.0022: real time    0.0022
    --------------------------------------------
      LOOP:  cpu time    0.7207: real time    0.7219

 eigenvalue-minimisations  :  5048
 total energy-change (2. order) :-0.4207808E+02  (-0.4068154E+02)
 number of electron      10.0000000 magnetization 
 augmentation part       10.0000000 magnetization 

 Free energy of the ion-electron system (eV)
  ---------------------------------------------------
  alpha Z        PSCENC =        88.76192870
  Ewald energy   TEWEN  =      -943.43351802
  -Hartree energ DENC   =       -44.63009305
  -exchange      EXHF   =         0.00000000
  -V(xc)+E(xc)   XCENC  =         5.39818990
  PAW double counting   =       696.70595042     -667.45827301
  entropy T*S    EENTRO =        -0.00405459
  eigenvalues    EBANDS =       133.99949297
  atomic energy  EATOM  =       728.31920932
  Solvation  Ediel_sol  =         0.00000000
  ---------------------------------------------------
  free energy    TOTEN  =        -2.34116736 eV

  energy without entropy =       -2.33711277  energy(sigma->0) =       -2.33914006


--------------------------------------------------------------------------------------------------------




--------------------------------------- Iteration      1(   3)  ---------------------------------------


     EDDAV:  cpu time    0.7215: real time    0.7229
       DOS:  cpu time    0.0020: real time    0.0020
    --------------------------------------------
      LOOP:  cpu time    0.7235: real time    0.7249

 eigenvalue-minimisations  :  5248
 total energy-change (2. order) :-0.4959453E+00  (-0.4946999E+00)
 number of electron      10.0000000 magnetization 
 augmentation part       10.0000000 magnetization 

 Free energy of the ion-electron system (eV)
  ---------------------------------------------------
  alpha Z        PSCENC =        88.76192870
  Ewald energy   TEWEN  =      -943.43351802
  -Hartree energ DENC   =       -44.63009305
  -exchange      EXHF   =         0.00000000
  -V(xc)+E(xc)   XCENC  =         5.39818990
  PAW double counting   =       696.70595042     -667.45827301
  entropy T*S    EENTRO =        -0.00483386
  eigenvalues    EBANDS =       133.50432694
  atomic energy  EATOM  =       728.31920932
  Solvation  Ediel_sol  =         0.00000000
  ---------------------------------------------------
  free energy    TOTEN  =        -2.83711266 eV

  energy without entropy =       -2.83227879  energy(sigma->0) =       -2.83469572


--------------------------------------------------------------------------------------------------------




--------------------------------------- Iteration      1(   4)  ---------------------------------------


     EDDAV:  cpu time    0.7264: real time    0.7303
       DOS:  cpu time    0.0019: real time    0.0019
    --------------------------------------------
      LOOP:  cpu time    0.7284: real time    0.7323

 eigenvalue-minimisations  :  5244
 total energy-change (2. order) :-0.1317879E-02  (-0.1317721E-02)
 number of electron      10.0000000 magnetization 
 augmentation part       10.0000000 magnetization 

 Free energy of the ion-electron system (eV)
  ---------------------------------------------------
  alpha Z        PSCENC =        88.76192870
  Ewald energy   TEWEN  =      -943.43351802
  -Hartree energ DENC   =       -44.63009305
  -exchange      EXHF   =         0.00000000
  -V(xc)+E(xc)   XCENC  =         5.39818990
  PAW double counting   =       696.70595042     -667.45827301
  entropy T*S    EENTRO =        -0.00483364
  eigenvalues    EBANDS =       133.50300884
  atomic energy  EATOM  =       728.31920932
  Solvation  Ediel_sol  =         0.00000000
  ---------------------------------------------------
  free energy    TOTEN  =        -2.83843053 eV

  energy without entropy =       -2.83359689  energy(sigma->0) =       -2.83601371


--------------------------------------------------------------------------------------------------------




--------------------------------------- Iteration      1(   5)  ---------------------------------------


     EDDAV:  cpu time    0.7369: real time    0.7381
       DOS:  cpu time    0.0020: real time    0.0020
    CHARGE:  cpu time    0.0102: real time    0.0102
    MIXING:  cpu time    0.0002: real time    0.0002
    --------------------------------------------
      LOOP:  cpu time    0.7493: real time    0.7505

 eigenvalue-minimisations  :  5360
 total energy-change (2. order) :-0.5939067E-05  (-0.5941928E-05)
 number of electron      10.0000012 magnetization 
 augmentation part        2.9902385 magnetization 

 Broyden mixing:
  rms(total) = 0.36053E+01    rms(broyden)= 0.36053E+01
  rms(prec ) = 0.38004E+01
  weight for this iteration     100.00

 Free energy of the ion-electron system (eV)
  ---------------------------------------------------
  alpha Z        PSCENC =        88.76192870
  Ewald energy   TEWEN  =      -943.43351802
  -Hartree energ DENC   =       -44.63009305
  -exchange      EXHF   =         0.00000000
  -V(xc)+E(xc)   XCENC  =         5.39818990
  PAW double counting   =       696.70595042     -667.45827301
  entropy T*S    EENTRO =        -0.00483364
  eigenvalues    EBANDS =       133.50300290
  atomic energy  EATOM  =       728.31920932
  Solvation  Ediel_sol  =         0.00000000
  ---------------------------------------------------
  free energy    TOTEN  =        -2.83843647 eV

  energy without entropy =       -2.83360283  energy(sigma->0) =       -2.83601965


--------------------------------------------------------------------------------------------------------




--------------------------------------- Iteration      1(   6)  ---------------------------------------


    POTLOK:  cpu time    0.0028: real time    0.0028
    SETDIJ:  cpu time    0.0066: real time    0.0066
     EDDAV:  cpu time    0.7289: real time    0.7328
       DOS:  cpu time    0.0022: real time    0.0022
    CHARGE:  cpu time    0.0095: real time    0.0095
    MIXING:  cpu time    0.0003: real time    0.0003
    --------------------------------------------
      LOOP:  cpu time    0.7503: real time    0.7542

 eigenvalue-minimisations  :  5320
 total energy-change (2. order) : 0.1994634E+00  (-0.1096615E-01)
 number of electron      10.0000013 magnetization 
 augmentation part        3.0318477 magnetization 

 Broyden mixing:
  rms(total) = 0.20746E+01    rms(broyden)= 0.20746E+01
  rms(prec ) = 0.21568E+01
  weight for this iteration     100.00

 eigenvalues of (default mixing * dielectric matrix)
  average eigenvalue GAMMA=   2.3530
  2.3530

 Free energy of the ion-electron system (eV)
  ---------------------------------------------------
  alpha Z        PSCENC =        88.76192870
  Ewald energy   TEWEN  =      -943.43351802
  -Hartree energ DENC   =       -40.66335134
  -exchange      EXHF   =         0.00000000
  -V(xc)+E(xc)   XCENC  =         5.28989097
  PAW double counting   =      1000.57225323     -973.89017988
  entropy T*S    EENTRO =        -0.00482390
  eigenvalues    EBANDS =       132.40961781
  atomic energy  EATOM  =       728.31920932
  Solvation  Ediel_sol  =         0.00000000
  ---------------------------------------------------
  free energy    TOTEN  =        -2.63897311 eV

  energy without entropy =       -2.63414921  energy(sigma->0) =       -2.63656116


--------------------------------------------------------------------------------------------------------




--------------------------------------- Iteration      1(   7)  ---------------------------------------


    POTLOK:  cpu time    0.0026: real time    0.0026
    SETDIJ:  cpu time    0.0036: real time    0.0036
     EDDAV:  cpu time    0.7306: real time    0.7318
       DOS:  cpu time    0.0021: real time    0.0021
    CHARGE:  cpu time    0.0096: real time    0.0096
    MIXING:  cpu time    0.0003: real time    0.0003
    --------------------------------------------
      LOOP:  cpu time    0.7487: real time    0.7499

 eigenvalue-minimisations  :  5368
 total energy-change (2. order) : 0.9384841E-01  (-0.1170107E-01)
 number of electron      10.0000013 magnetization 
 augmentation part        3.0743103 magnetization 

 Broyden mixing:
  rms(total) = 0.10552E+00    rms(broyden)= 0.10552E+00
  rms(prec ) = 0.13580E+00
  weight for this iteration     100.00

 eigenvalues of (default mixing * dielectric matrix)
  average eigenvalue GAMMA=   2.1758
  1.7702  2.5815

 Free energy of the ion-electron system (eV)
  ---------------------------------------------------
  alpha Z        PSCENC =        88.76192870
  Ewald energy   TEWEN  =      -943.43351802
  -Hartree energ DENC   =       -36.43222866
  -exchange      EXHF   =         0.00000000
  -V(xc)+E(xc)   XCENC  =         5.18494993
  PAW double counting   =      1516.31415154    -1492.93858380
  entropy T*S    EENTRO =        -0.00483684
  eigenvalues    EBANDS =       131.68380312
  atomic energy  EATOM  =       728.31920932
  Solvation  Ediel_sol  =         0.00000000
  ---------------------------------------------------
  free energy    TOTEN  =        -2.54512470 eV

  energy without entropy =       -2.54028786  energy(sigma->0) =       -2.54270628


--------------------------------------------------------------------------------------------------------




--------------------------------------- Iteration      1(   8)  ---------------------------------------


    POTLOK:  cpu time    0.0025: real time    0.0025
    SETDIJ:  cpu time    0.0063: real time    0.0063
     EDDAV:  cpu time    0.6929: real time    0.6995
       DOS:  cpu time    0.0020: real time    0.0020
    CHARGE:  cpu time    0.0099: real time    0.0099
    MIXING:  cpu time    0.0003: real time    0.0003
    --------------------------------------------
      LOOP:  cpu time    0.7138: real time    0.7204

 eigenvalue-minimisations  :  5024
 total energy-change (2. order) : 0.2267392E-02  (-0.7842614E-03)
 number of electron      10.0000013 magnetization 
 augmentation part        3.0654299 magnetization 

 Broyden mixing:
  rms(total) = 0.14589E-01    rms(broyden)= 0.14589E-01
  rms(prec ) = 0.15278E-01
  weight for this iteration     100.00

 eigenvalues of (default mixing * dielectric matrix)
  average eigenvalue GAMMA=   1.7377
  1.0734  2.4758  1.6639

 Free energy of the ion-electron system (eV)
  ---------------------------------------------------
  alpha Z        PSCENC =        88.76192870
  Ewald energy   TEWEN  =      -943.43351802
  -Hartree energ DENC   =       -36.82102830
  -exchange      EXHF   =         0.00000000
  -V(xc)+E(xc)   XCENC  =         5.19578233
  PAW double counting   =      1542.05596656    -1518.84635339
  entropy T*S    EENTRO =        -0.00484072
  eigenvalues    EBANDS =       132.22999621
  atomic energy  EATOM  =       728.31920932
  Solvation  Ediel_sol  =         0.00000000
  ---------------------------------------------------
  free energy    TOTEN  =        -2.54285731 eV

  energy without entropy =       -2.53801659  energy(sigma->0) =       -2.54043695


--------------------------------------------------------------------------------------------------------




--------------------------------------- Iteration      1(   9)  ---------------------------------------


    POTLOK:  cpu time    0.0026: real time    0.0026
    SETDIJ:  cpu time    0.0037: real time    0.0037
     EDDAV:  cpu time    0.6695: real time    0.6759
       DOS:  cpu time    0.0046: real time    0.0046
    --------------------------------------------
      LOOP:  cpu time    0.6804: real time    0.6868

 eigenvalue-minimisations  :  4560
 total energy-change (2. order) : 0.1199056E-04  (-0.5968051E-05)
 number of electron      10.0000013 magnetization 
 augmentation part        3.0654299 magnetization 

 Free energy of the ion-electron system (eV)
  ---------------------------------------------------
  alpha Z        PSCENC =        88.76192870
  Ewald energy   TEWEN  =      -943.43351802
  -Hartree energ DENC   =       -36.81107492
  -exchange      EXHF   =         0.00000000
  -V(xc)+E(xc)   XCENC  =         5.19565268
  PAW double counting   =      1538.27764160    -1515.03292835
  entropy T*S    EENTRO =        -0.00484033
  eigenvalues    EBANDS =       132.18508400
  atomic energy  EATOM  =       728.31920932
  Solvation  Ediel_sol  =         0.00000000
  ---------------------------------------------------
  free energy    TOTEN  =        -2.54284531 eV

  energy without entropy =       -2.53800498  energy(sigma->0) =       -2.54042515


--------------------------------------------------------------------------------------------------------




 average (electrostatic) potential at core
  the test charge radii are     1.2059
  (the norm of the test charge is              1.0000)
       1 -56.3776
 
 
 
 E-fermi :  19.5775     XC(G=0): -15.5871     alpha+bet :-23.3961

 Fermi energy:        19.5774945760

 k-point     1 :       0.0000    0.0000    0.0000
  band No.  band energies     occupation 
      1       4.6830      2.00000
      2      12.7797      2.00000
      3      12.7798      2.00000
      4      12.7798      2.00000
      5      16.5398      2.00000
      6      16.5398      2.00000
      7      32.0187      0.00000
      8      39.1216      0.00000
      9      39.1219      0.00000
     10      39.1219      0.00000
     11      45.8466      0.00000
     12      50.4782      0.00000

[...]
      1       8.7790      2.00000
      2       9.4028      2.00000
      3      14.2158      2.00000
      4      17.4822      2.00000
      5      19.6097      0.36197
      6      24.7474      0.00000
      7      30.6003      0.00000
      8      32.4172      0.00000
      9      35.7782      0.00000
     10      45.7945      0.00000
     11      46.5668      0.00000
     12      50.1169      0.00000

 k-point   150 :       0.1429   -0.4286    0.4286
  band No.  band energies     occupation 
      1       8.7790      2.00000
      2       9.4028      2.00000
      3      14.2158      2.00000
      4      17.4822      2.00000
      5      19.6097      0.36199
      6      24.7474      0.00000
      7      30.6003      0.00000
      8      32.4172      0.00000
      9      35.7782      0.00000
     10      45.7945      0.00000
     11      46.5668      0.00000
     12      50.1166      0.00000

 k-point   151 :       0.4286    0.1429   -0.4286
  band No.  band energies     occupation 
      1       8.7790      2.00000
      2       9.4028      2.00000
      3      14.2158      2.00000
      4      17.4822      2.00000
      5      19.6097      0.36199
      6      24.7474      0.00000
      7      30.6003      0.00000
      8      32.4172      0.00000
      9      35.7782      0.00000
     10      45.7945      0.00000
     11      46.5668      0.00000
     12      50.1163      0.00000

 k-point   152 :       0.4286    0.2857   -0.1429
  band No.  band energies     occupation 
      1       8.7790      2.00000
      2       9.4028      2.00000
      3      14.2158      2.00000
      4      17.4823      2.00000
      5      19.6097      0.36219
      6      24.7475      0.00000
      7      30.6003      0.00000
      8      32.4172      0.00000
      9      35.7782      0.00000
     10      45.7944      0.00000
     11      46.5668      0.00000
     12      50.1161      0.00000

 k-point   153 :      -0.4286    0.1429    0.4286
  band No.  band energies     occupation 
      1       8.7790      2.00000
      2       9.4028      2.00000
      3      14.2158      2.00000
      4      17.4822      2.00000
      5      19.6097      0.36198
      6      24.7474      0.00000
      7      30.6003      0.00000
      8      32.4172      0.00000
      9      35.7782      0.00000
     10      45.7945      0.00000
     11      46.5668      0.00000
     12      50.1162      0.00000

 k-point   154 :       0.1429   -0.4286   -0.2857
  band No.  band energies     occupation 
      1       8.7790      2.00000
      2       9.4028      2.00000
      3      14.2158      2.00000
      4      17.4823      2.00000
      5      19.6097      0.36216
      6      24.7475      0.00000
      7      30.6003      0.00000
      8      32.4172      0.00000
      9      35.7782      0.00000
     10      45.7944      0.00000
     11      46.5668      0.00000
     12      50.1161      0.00000

 k-point   155 :       0.2857    0.4286   -0.1429
  band No.  band energies     occupation 
      1       8.7790      2.00000
      2       9.4028      2.00000
      3      14.2158      2.00000
      4      17.4823      2.00000
      5      19.6097      0.36217
      6      24.7475      0.00000
      7      30.6003      0.00000
      8      32.4172      0.00000
      9      35.7782      0.00000
     10      45.7944      0.00000
     11      46.5668      0.00000
     12      50.1160      0.00000

 k-point   156 :       0.1429   -0.2857   -0.4286
  band No.  band energies     occupation 
      1       8.7790      2.00000
      2       9.4028      2.00000
      3      14.2158      2.00000
      4      17.4823      2.00000
      5      19.6097      0.36219
      6      24.7475      0.00000
      7      30.6003      0.00000
      8      32.4172      0.00000
      9      35.7782      0.00000
     10      45.7944      0.00000
     11      46.5668      0.00000
     12      50.1167      0.00000

 k-point   157 :       0.4286   -0.4286    0.1429
  band No.  band energies     occupation 
      1       8.7790      2.00000
      2       9.4028      2.00000
      3      14.2158      2.00000
      4      17.4822      2.00000
      5      19.6097      0.36200
      6      24.7474      0.00000
      7      30.6003      0.00000
      8      32.4172      0.00000
      9      35.7782      0.00000
     10      45.7945      0.00000
     11      46.5668      0.00000
     12      50.1164      0.00000

 k-point   158 :      -0.2857    0.1429   -0.4286
  band No.  band energies     occupation 
      1       8.7790      2.00000
      2       9.4028      2.00000
      3      14.2158      2.00000
      4      17.4823      2.00000
      5      19.6097      0.36219
      6      24.7475      0.00000
      7      30.6003      0.00000
      8      32.4172      0.00000
      9      35.7782      0.00000
     10      45.7944      0.00000
     11      46.5668      0.00000
     12      50.1163      0.00000

 k-point   159 :      -0.4286    0.1429   -0.2857
  band No.  band energies     occupation 
      1       8.7790      2.00000
      2       9.4028      2.00000
      3      14.2158      2.00000
      4      17.4823      2.00000
      5      19.6097      0.36218
      6      24.7475      0.00000
      7      30.6003      0.00000
      8      32.4172      0.00000
      9      35.7782      0.00000
     10      45.7944      0.00000
     11      46.5668      0.00000
     12      50.1160      0.00000

 k-point   160 :       0.1429    0.4286   -0.4286
  band No.  band energies     occupation 
      1       8.7790      2.00000
      2       9.4028      2.00000
      3      14.2158      2.00000
      4      17.4822      2.00000
      5      19.6097      0.36197
      6      24.7474      0.00000
      7      30.6003      0.00000
      8      32.4172      0.00000
      9      35.7782      0.00000
     10      45.7945      0.00000
     11      46.5668      0.00000
     12      50.1167      0.00000

 k-point   161 :      -0.2857    0.4286    0.1429
  band No.  band energies     occupation 
      1       9.5269      2.00000
      2      10.8201      2.00000
      3      12.6024      2.00000
      4      15.8906      2.00000
      5      19.6014      0.49829
      6      26.8731      0.00000
      7      29.7531      0.00000
      8      31.9892      0.00000
      9      35.9602      0.00000
     10      44.5366      0.00000
     11      47.1561      0.00000
     12      50.4424      0.00000

 k-point   162 :       0.1429   -0.2857    0.4286
  band No.  band energies     occupation 
      1       9.5269      2.00000
      2      10.8201      2.00000
      3      12.6024      2.00000
      4      15.8906      2.00000
      5      19.6014      0.49831
      6      26.8731      0.00000
      7      29.7531      0.00000
      8      31.9892      0.00000
      9      35.9602      0.00000
     10      44.5366      0.00000
     11      47.1561      0.00000
     12      50.4373      0.00000

 k-point   163 :       0.4286    0.1429   -0.2857
  band No.  band energies     occupation 
      1       9.5269      2.00000
      2      10.8201      2.00000
      3      12.6024      2.00000
      4      15.8906      2.00000
      5      19.6014      0.49831
      6      26.8731      0.00000
      7      29.7531      0.00000
      8      31.9892      0.00000
      9      35.9602      0.00000
     10      44.5366      0.00000
     11      47.1561      0.00000
     12      50.4384      0.00000

 k-point   164 :       0.4286    0.2857   -0.2857
  band No.  band energies     occupation 
      1       9.5269      2.00000
      2      10.8200      2.00000
      3      12.6024      2.00000
      4      15.8907      2.00000
      5      19.6014      0.49814
      6      26.8730      0.00000
      7      29.7531      0.00000
      8      31.9892      0.00000
      9      35.9603      0.00000
     10      44.5367      0.00000
     11      47.1561      0.00000
     12      50.4365      0.00000

 k-point   165 :      -0.2857    0.2857   -0.4286
  band No.  band energies     occupation 
      1       9.5269      2.00000
      2      10.8200      2.00000
      3      12.6024      2.00000
      4      15.8907      2.00000
      5      19.6014      0.49813
      6      26.8730      0.00000
      7      29.7531      0.00000
      8      31.9892      0.00000
      9      35.9603      0.00000
     10      44.5367      0.00000
     11      47.1561      0.00000
     12      50.4450      0.00000

 k-point   166 :       0.1429    0.4286   -0.2857
  band No.  band energies     occupation 
      1       9.5269      2.00000
      2      10.8201      2.00000
      3      12.6024      2.00000
      4      15.8906      2.00000
      5      19.6014      0.49828
      6      26.8731      0.00000
      7      29.7531      0.00000
      8      31.9892      0.00000
      9      35.9602      0.00000
     10      44.5366      0.00000
     11      47.1561      0.00000
     12      50.4359      0.00000

 k-point   167 :       0.2857   -0.2857   -0.4286
  band No.  band energies     occupation 
      1       9.5269      2.00000
      2      10.8200      2.00000
      3      12.6024      2.00000
      4      15.8907      2.00000
      5      19.6014      0.49814
      6      26.8730      0.00000
      7      29.7531      0.00000
      8      31.9892      0.00000
      9      35.9603      0.00000
     10      44.5367      0.00000
     11      47.1561      0.00000
     12      50.4369      0.00000

 k-point   168 :       0.4286   -0.2857    0.2857
  band No.  band energies     occupation 
      1       9.5269      2.00000
      2      10.8200      2.00000
      3      12.6024      2.00000
      4      15.8907      2.00000
      5      19.6014      0.49814
      6      26.8730      0.00000
      7      29.7531      0.00000
      8      31.9892      0.00000
      9      35.9603      0.00000
     10      44.5367      0.00000
     11      47.1561      0.00000
     12      50.4362      0.00000

 k-point   169 :      -0.2857    0.1429    0.4286
  band No.  band energies     occupation 
      1       9.5269      2.00000
      2      10.8201      2.00000
      3      12.6024      2.00000
      4      15.8906      2.00000
      5      19.6014      0.49830
      6      26.8731      0.00000
      7      29.7531      0.00000
      8      31.9892      0.00000
      9      35.9602      0.00000
     10      44.5366      0.00000
     11      47.1561      0.00000
     12      50.4427      0.00000

 k-point   170 :      -0.2857    0.4286    0.2857
  band No.  band energies     occupation 
      1       9.5269      2.00000
      2      10.8200      2.00000
      3      12.6024      2.00000
      4      15.8907      2.00000
      5      19.6014      0.49811
      6      26.8730      0.00000
      7      29.7531      0.00000
      8      31.9892      0.00000
      9      35.9603      0.00000
     10      44.5367      0.00000
     11      47.1561      0.00000
     12      50.4639      0.00000

 k-point   171 :       0.2857    0.4286   -0.2857
  band No.  band energies     occupation 
      1       9.5269      2.00000
      2      10.8200      2.00000
      3      12.6024      2.00000
      4      15.8907      2.00000
      5      19.6014      0.49812
      6      26.8730      0.00000
      7      29.7531      0.00000
      8      31.9892      0.00000
      9      35.9603      0.00000
     10      44.5367      0.00000
     11      47.1561      0.00000
     12      50.4405      0.00000

 k-point   172 :       0.4286   -0.2857    0.1429
  band No.  band energies     occupation 
      1       9.5269      2.00000
      2      10.8201      2.00000
      3      12.6024      2.00000
      4      15.8906      2.00000
      5      19.6014      0.49831
      6      26.8731      0.00000
      7      29.7531      0.00000
      8      31.9892      0.00000
      9      35.9602      0.00000
     10      44.5366      0.00000
     11      47.1561      0.00000
     12      50.4403      0.00000


--------------------------------------------------------------------------------------------------------


 soft charge-density along one line, spin component            1
         0         1         2         3         4         5         6         7         8         9
 total charge-density along one line
 
 pseudopotential strength for first ion, spin component:            1
  0.130   0.000  -0.021   0.000   0.012  -0.158   0.000  -0.020
  0.000   0.130   0.000  -0.024  -0.000   0.000  -0.158   0.000
 -0.021   0.000   0.109   0.000  -0.007  -0.020   0.000  -0.179
  0.000  -0.024   0.000   0.113   0.000   0.000  -0.024   0.000
  0.012  -0.000  -0.007   0.000   0.100   0.012  -0.000  -0.007
 -0.158   0.000  -0.020   0.000   0.012  -0.426   0.000  -0.020
  0.000  -0.158   0.000  -0.024  -0.000   0.000  -0.426   0.000
 -0.020   0.000  -0.179   0.000  -0.007  -0.020   0.000  -0.446
  0.000  -0.024   0.000  -0.175   0.000   0.000  -0.023   0.000
  0.012  -0.000  -0.007   0.000  -0.187   0.012  -0.000  -0.007
 -0.000  -0.000  -0.000  -0.000  -0.000  -0.000  -0.000  -0.000
 -0.000  -0.000  -0.000  -0.000  -0.000  -0.000  -0.000  -0.000
  0.000  -0.000   0.000   0.000   0.000   0.000  -0.000   0.000
  0.000   0.000  -0.000   0.000  -0.000   0.000   0.000  -0.000
 -0.000   0.000  -0.000  -0.000   0.000  -0.000   0.000  -0.000
  0.000  -0.000   0.000   0.000   0.000   0.000  -0.000   0.000
  0.000   0.000  -0.000   0.000  -0.000   0.000   0.000  -0.000
 -0.000   0.000  -0.000  -0.000   0.000  -0.000   0.000  -0.000
 total augmentation occupancy for first ion, spin component:            1
 10.874   0.000  -0.355   0.000   0.205  -9.939  -0.000  -0.032  -0.000   0.019   0.000  -0.000  -0.000   0.000  -0.000   0.000
  0.000  10.874  -0.000  -0.410  -0.000  -0.000  -9.940   0.000  -0.038   0.000   0.000   0.000  -0.000   0.000   0.000   0.000
 -0.355  -0.000  10.511  -0.000  -0.126  -0.032   0.000  -9.973   0.000  -0.011   0.000  -0.000  -0.000   0.000   0.000   0.000
  0.000  -0.410  -0.000  10.584   0.000  -0.000  -0.038   0.000  -9.966  -0.000   0.000  -0.000   0.000   0.000   0.000  -0.000
  0.205  -0.000  -0.126   0.000  10.366   0.019   0.000  -0.011  -0.000  -9.986   0.000  -0.000  -0.000   0.000   0.000   0.000
 -9.939  -0.000  -0.032  -0.000   0.019  10.837   0.000   0.349  -0.000  -0.202  -0.000  -0.000   0.000  -0.000   0.000  -0.000
 -0.000  -9.940   0.000  -0.038   0.000   0.000  10.837  -0.000   0.403  -0.000   0.000  -0.000   0.000  -0.000  -0.000  -0.000
 -0.032   0.000  -9.973   0.000  -0.011   0.349  -0.000  11.194   0.000   0.123  -0.000  -0.000   0.000   0.000  -0.000  -0.000
 -0.000  -0.038   0.000  -9.966  -0.000  -0.000   0.403   0.000  11.122   0.000  -0.000  -0.000  -0.000  -0.000  -0.000   0.000
  0.019   0.000  -0.011  -0.000  -9.986  -0.202  -0.000   0.123   0.000  11.336  -0.000   0.000   0.000  -0.000  -0.000  -0.000
  0.000   0.000   0.000   0.000   0.000  -0.000   0.000  -0.000  -0.000  -0.000   4.912  -1.497   0.000   0.000  -0.000   0.000
 -0.000   0.000  -0.000  -0.000  -0.000  -0.000  -0.000  -0.000  -0.000   0.000  -1.497   0.486  -0.000   0.000   0.000  -0.000
 -0.000  -0.000  -0.000   0.000  -0.000   0.000   0.000   0.000  -0.000   0.000   0.000  -0.000   0.591   0.000   0.000  -0.027
  0.000   0.000   0.000   0.000   0.000  -0.000  -0.000   0.000  -0.000  -0.000   0.000   0.000   0.000   0.591  -0.000  -0.000
 -0.000   0.000   0.000   0.000   0.000   0.000  -0.000  -0.000  -0.000  -0.000  -0.000   0.000   0.000  -0.000   0.591   0.000
  0.000   0.000   0.000  -0.000   0.000  -0.000  -0.000  -0.000   0.000  -0.000   0.000  -0.000  -0.027  -0.000   0.000   0.002
 -0.000  -0.000   0.000  -0.000  -0.000   0.000   0.000  -0.000   0.000   0.000  -0.000   0.000   0.000  -0.027  -0.000   0.000
  0.000  -0.000  -0.000  -0.000  -0.000  -0.000  -0.000   0.000   0.000   0.000   0.000  -0.000  -0.000  -0.000  -0.027   0.000


------------------------ aborting loop because EDIFF is reached ----------------------------------------





 total charge

# of ion       s       p       d       tot
------------------------------------------
    1        0.885   1.186   8.594  10.665
 
    CHARGE:  cpu time    0.0097: real time    0.0097
    FORLOC:  cpu time    0.0001: real time    0.0001
    FORNL :  cpu time    0.0256: real time    0.0256
    FORCOR:  cpu time    0.0058: real time    0.0058
    FORHAR:  cpu time    0.0006: real time    0.0006
    MIXING:  cpu time    0.0003: real time    0.0003
    OFIELD:  cpu time    0.0000: real time    0.0000

 VOLUME and BASIS-vectors are now :
 -----------------------------------------------------------------------------
  energy-cutoff  :      420.00
  volume of cell :       10.71
      direct lattice vectors                 reciprocal lattice vectors
     2.142678000  0.000004000  1.237088000     0.466706491 -0.165006467 -0.000000865
     0.714231000  2.020134000  1.237088000    -0.000000462  0.495017321 -0.000000800
     0.000006000  0.000004000  2.474157000    -0.233354806 -0.165006694  0.404178902

  length of vectors
     2.474157580  2.474157234  2.474157000     0.495017255  0.495017321  0.495017434


 FORCES acting on ions
    electron-ion (+dipol)            ewald-force                    non-local-force                 convergence-correction
 -----------------------------------------------------------------------------------------------
   0.687E-04 -.183E-05 -.123E-03   -.811E-15 -.604E-16 -.664E-16   -.417E-04 -.101E-04 -.329E-04   -.469E-04 0.913E-05 0.134E-03
 -----------------------------------------------------------------------------------------------
   0.687E-04 -.183E-05 -.123E-03   -.811E-15 -.604E-16 -.664E-16   -.417E-04 -.101E-04 -.329E-04   -.469E-04 0.913E-05 0.134E-03
 
 
 POSITION                                       TOTAL-FORCE (eV/Angst)
 -----------------------------------------------------------------------------------
      0.00000      0.00000      0.00000        -0.000020     -0.000003     -0.000022
 -----------------------------------------------------------------------------------
    total drift:                               -0.000020     -0.000003     -0.000022


--------------------------------------------------------------------------------------------------------



  FREE ENERGIE OF THE ION-ELECTRON SYSTEM (eV)
  ---------------------------------------------------
  free  energy   TOTEN  =        -2.54284531 eV

  energy  without entropy=       -2.53800498  energy(sigma->0) =       -2.54042515
 


--------------------------------------------------------------------------------------------------------


    POTLOK:  cpu time    0.0060: real time    0.0060


--------------------------------------------------------------------------------------------------------


     LOOP+:  cpu time    6.5284: real time    6.5582
    4ORBIT:  cpu time    0.0000: real time    0.0000



 total charge

# of ion       s       p       d       tot
------------------------------------------
    1        0.885   1.186   8.594  10.665
 

 total amount of memory used by VASP MPI-rank0    32554. kBytes
=======================================================================

   base      :      30000. kBytes
   nonl-proj :       1685. kBytes
   fftplans  :         52. kBytes
   grid      :         76. kBytes
   one-center:         15. kBytes
   wavefun   :        726. kBytes
 
  
  
 General timing and accounting informations for this job:
 ========================================================
  
                  Total CPU time used (sec):        7.658
                            User time (sec):        7.438
                          System time (sec):        0.220
                         Elapsed time (sec):       12.948
  
                   Maximum memory used (kb):       53920.
                   Average memory used (kb):          N/A
  
                          Minor page faults:         8056
                          Major page faults:          447
                 Voluntary context switches:         5725
