 running on   16 total cores
 distrk:  each k-point on   16 cores,    1 groups
 distr:  one band on    4 cores,    4 groups
 vasp.6.2.0 18Jan21 (build Feb  1 2022 01:28:57) complex                         
 POSCAR found type information on POSCAR Pt
 POSCAR found :  1 types and       1 ions
 scaLAPACK will be used
 -----------------------------------------------------------------------------
|                                                                             |
|               ----> ADVICE to this user running VASP <----                  |
|                                                                             |
|     You enforced a specific xc type in the INCAR file but a different       |
|     type was found in the POTCAR file.                                      |
|     I HOPE YOU KNOW WHAT YOU ARE DOING!                                     |
|                                                                             |
 -----------------------------------------------------------------------------

 LDA part: xc-table for Pade appr. of Perdew
 -----------------------------------------------------------------------------
|                                                                             |
|           W    W    AA    RRRRR   N    N  II  N    N   GGGG   !!!           |
|           W    W   A  A   R    R  NN   N  II  NN   N  G    G  !!!           |
|           W    W  A    A  R    R  N N  N  II  N N  N  G       !!!           |
|           W WW W  AAAAAA  RRRRR   N  N N  II  N  N N  G  GGG   !            |
|           WW  WW  A    A  R   R   N   NN  II  N   NN  G    G                |
|           W    W  A    A  R    R  N    N  II  N    N   GGGG   !!!           |
|                                                                             |
|     The requested file  could not be found or opened for reading            |
|     k-point information. Automatic k-point generation is used as a          |
|     fallback, which may lead to unwanted results.                           |
|                                                                             |
 -----------------------------------------------------------------------------

 POSCAR, INCAR and KPOINTS ok, starting setup
 FFT: planning ...
 WAVECAR not read
 entering main loop
       N       E                     dE             d eps       ncg     rms          rms(c)
DAV:   1     0.397369110935E+02    0.39737E+02   -0.46821E+03  4324   0.664E+02
DAV:   2    -0.234116735793E+01   -0.42078E+02   -0.40682E+02  5048   0.170E+02
DAV:   3    -0.283711265575E+01   -0.49595E+00   -0.49470E+00  5248   0.168E+01
DAV:   4    -0.283843053456E+01   -0.13179E-02   -0.13177E-02  5244   0.102E+00
DAV:   5    -0.283843647363E+01   -0.59391E-05   -0.59419E-05  5360   0.587E-02    0.361E+01
DAV:   6    -0.263897310917E+01    0.19946E+00   -0.10966E-01  5320   0.276E+00    0.207E+01
DAV:   7    -0.254512469670E+01    0.93848E-01   -0.11701E-01  5368   0.275E+00    0.106E+00
DAV:   8    -0.254285730518E+01    0.22674E-02   -0.78426E-03  5024   0.792E-01    0.146E-01
DAV:   9    -0.254284531462E+01    0.11991E-04   -0.59681E-05  4560   0.689E-02
   1 F= -.25428453E+01 E0= -.25404251E+01  d E =-.484033E-02
