<?xml version="1.0" encoding="ISO-8859-1"?>
<modeling>
 <generator>
  <i name="program" type="string">vasp </i>
  <i name="version" type="string">6.2.0  </i>
  <i name="subversion" type="string">18Jan21 (build Feb  1 2022 01:28:57) complex                          parallel </i>
  <i name="platform" type="string">LinuxPGI </i>
  <i name="date" type="string">2022 05 18 </i>
  <i name="time" type="string">19:40:16 </i>
 </generator>
 <incar>
  <i type="string" name="PREC">Normal</i>
  <i type="string" name="ALGO">38</i>
  <i type="int" name="ISPIN">     1</i>
  <i type="int" name="NELM">    60</i>
  <i type="int" name="NELMIN">     4</i>
  <i type="int" name="IBRION">     2</i>
  <i name="EDIFF">      0.00010000</i>
  <i name="EDIFFG">     -0.03000000</i>
  <i type="int" name="NSW">     0</i>
  <i type="int" name="ISIF">     0</i>
  <i type="int" name="ISYM">     0</i>
  <i name="SYMPREC">      0.00001000</i>
  <i name="ENCUT">    420.00000000</i>
  <i type="logical" name="LREAL"> F  </i>
  <i type="int" name="ISMEAR">     0</i>
  <i name="SIGMA">      0.05000000</i>
  <i type="logical" name="LWAVE"> F  </i>
  <i type="logical" name="LVTOT"> F  </i>
  <i type="int" name="LORBIT">    11</i>
  <i type="logical" name="LASPH"> F  </i>
  <i type="string" name="GGA">RP</i>
 </incar>
 <primitive_cell>
  <structure name="primitive_cell" >
   <crystal>
    <varray name="basis" >
     <v>       2.14267800       0.00000400       1.23708800 </v>
     <v>       0.71423100       2.02013400       1.23708800 </v>
     <v>       0.00000600       0.00000400       2.47415700 </v>
    </varray>
    <i name="volume">     10.70935123 </i>
    <varray name="rec_basis" >
     <v>       0.46670649      -0.16500647      -0.00000087 </v>
     <v>      -0.00000046       0.49501732      -0.00000080 </v>
     <v>      -0.23335481      -0.16500669       0.40417890 </v>
    </varray>
   </crystal>
   <varray name="positions" >
    <v>       0.00000000       0.00000000       0.00000000 </v>
   </varray>
  </structure>
  <varray name="primitive_index" >
   <v type="int" >        1 </v>
  </varray>
 </primitive_cell>
 <kpoints>
  <generation param="Gamma">
   <v type="int" name="divisions">       7        7        7 </v>
   <v name="usershift">      0.00000000       0.00000000       0.00000000 </v>
   <v name="genvec1">      0.14285714      -0.00000000       0.00000000 </v>
   <v name="genvec2">      0.00000000       0.14285714       0.00000000 </v>
   <v name="genvec3">      0.00000000       0.00000000       0.14285714 </v>
   <v name="shift">      0.00000000       0.00000000       0.00000000 </v>
  </generation>
  <varray name="kpointlist" >
   <v>       0.00000000       0.00000000       0.00000000 </v>
   <v>       0.14285714       0.00000000       0.00000000 </v>
   <v>       0.00000000       0.14285714       0.00000000 </v>
   <v>       0.00000000       0.00000000       0.14285714 </v>
   <v>       0.14285714       0.14285714       0.14285714 </v>
   <v>       0.28571429       0.00000000       0.00000000 </v>
   <v>       0.00000000       0.28571429       0.00000000 </v>
   <v>       0.00000000       0.00000000       0.28571429 </v>
   <v>       0.28571429       0.28571429       0.28571429 </v>
   <v>       0.42857143       0.00000000       0.00000000 </v>
   <v>       0.00000000       0.42857143       0.00000000 </v>
   <v>       0.00000000       0.00000000       0.42857143 </v>
   <v>       0.42857143       0.42857143       0.42857143 </v>
   <v>       0.14285714       0.14285714       0.00000000 </v>
   <v>       0.00000000       0.14285714       0.14285714 </v>
   <v>       0.14285714       0.00000000       0.14285714 </v>
   <v>       0.28571429       0.14285714       0.00000000 </v>
   <v>       0.00000000       0.28571429       0.14285714 </v>
   <v>       0.14285714       0.00000000       0.28571429 </v>
   <v>       0.14285714       0.14285714      -0.14285714 </v>
   <v>       0.28571429       0.14285714       0.28571429 </v>
   <v>       0.14285714       0.28571429       0.00000000 </v>
   <v>       0.14285714      -0.14285714      -0.14285714 </v>
   <v>       0.28571429       0.28571429       0.14285714 </v>
   <v>       0.00000000       0.14285714       0.28571429 </v>
   <v>      -0.14285714       0.14285714      -0.14285714 </v>
   <v>       0.14285714       0.28571429       0.28571429 </v>
   <v>       0.28571429       0.00000000       0.14285714 </v>
   <v>       0.42857143       0.14285714       0.00000000 </v>
   <v>       0.00000000       0.42857143       0.14285714 </v>
   <v>       0.14285714       0.00000000       0.42857143 </v>
   <v>       0.14285714       0.14285714      -0.28571429 </v>
   <v>       0.42857143       0.28571429       0.42857143 </v>
   <v>       0.14285714       0.42857143       0.00000000 </v>
   <v>       0.28571429      -0.14285714      -0.14285714 </v>
   <v>       0.42857143       0.42857143       0.28571429 </v>
   <v>       0.00000000       0.14285714       0.42857143 </v>
   <v>      -0.14285714       0.28571429      -0.14285714 </v>
   <v>       0.28571429       0.42857143       0.42857143 </v>
   <v>       0.42857143       0.00000000       0.14285714 </v>
   <v>      -0.42857143       0.14285714       0.00000000 </v>
   <v>       0.00000000      -0.42857143       0.14285714 </v>
   <v>       0.14285714       0.00000000      -0.42857143 </v>
   <v>       0.14285714       0.14285714      -0.42857143 </v>
   <v>      -0.42857143       0.42857143      -0.42857143 </v>
   <v>       0.14285714      -0.42857143       0.00000000 </v>
   <v>       0.42857143      -0.14285714      -0.14285714 </v>
   <v>      -0.42857143      -0.42857143       0.42857143 </v>
   <v>       0.00000000       0.14285714      -0.42857143 </v>
   <v>      -0.14285714       0.42857143      -0.14285714 </v>
   <v>       0.42857143      -0.42857143      -0.42857143 </v>
   <v>      -0.42857143       0.00000000       0.14285714 </v>
   <v>      -0.28571429       0.14285714       0.00000000 </v>
   <v>       0.00000000      -0.28571429       0.14285714 </v>
   <v>       0.14285714       0.00000000      -0.28571429 </v>
   <v>       0.14285714       0.14285714       0.42857143 </v>
   <v>      -0.28571429      -0.42857143      -0.28571429 </v>
   <v>       0.14285714      -0.28571429       0.00000000 </v>
   <v>      -0.42857143      -0.14285714      -0.14285714 </v>
   <v>      -0.28571429      -0.28571429      -0.42857143 </v>
   <v>       0.00000000       0.14285714      -0.28571429 </v>
   <v>      -0.14285714      -0.42857143      -0.14285714 </v>
   <v>      -0.42857143      -0.28571429      -0.28571429 </v>
   <v>      -0.28571429       0.00000000       0.14285714 </v>
   <v>      -0.14285714       0.14285714       0.00000000 </v>
   <v>       0.00000000      -0.14285714       0.14285714 </v>
   <v>       0.14285714       0.00000000      -0.14285714 </v>
   <v>       0.14285714       0.14285714       0.28571429 </v>
   <v>      -0.14285714      -0.28571429      -0.14285714 </v>
   <v>      -0.28571429      -0.14285714      -0.14285714 </v>
   <v>       0.28571429       0.28571429       0.00000000 </v>
   <v>       0.00000000       0.28571429       0.28571429 </v>
   <v>       0.28571429       0.00000000       0.28571429 </v>
   <v>       0.42857143       0.28571429       0.00000000 </v>
   <v>       0.00000000       0.42857143       0.28571429 </v>
   <v>       0.28571429       0.00000000       0.42857143 </v>
   <v>       0.28571429       0.28571429      -0.14285714 </v>
   <v>       0.42857143       0.14285714       0.42857143 </v>
   <v>       0.28571429       0.42857143       0.00000000 </v>
   <v>       0.14285714      -0.28571429      -0.28571429 </v>
   <v>       0.42857143       0.42857143       0.14285714 </v>
   <v>       0.00000000       0.28571429       0.42857143 </v>
   <v>      -0.28571429       0.14285714      -0.28571429 </v>
   <v>       0.14285714       0.42857143       0.42857143 </v>
   <v>       0.42857143       0.00000000       0.28571429 </v>
   <v>      -0.42857143       0.28571429       0.00000000 </v>
   <v>       0.00000000      -0.42857143       0.28571429 </v>
   <v>       0.28571429       0.00000000      -0.42857143 </v>
   <v>       0.28571429       0.28571429      -0.28571429 </v>
   <v>      -0.42857143       0.28571429      -0.42857143 </v>
   <v>       0.28571429      -0.42857143       0.00000000 </v>
   <v>       0.28571429      -0.28571429      -0.28571429 </v>
   <v>      -0.42857143      -0.42857143       0.28571429 </v>
   <v>       0.00000000       0.28571429      -0.42857143 </v>
   <v>      -0.28571429       0.28571429      -0.28571429 </v>
   <v>       0.28571429      -0.42857143      -0.42857143 </v>
   <v>      -0.42857143       0.00000000       0.28571429 </v>
   <v>      -0.28571429       0.28571429       0.00000000 </v>
   <v>       0.00000000      -0.28571429       0.28571429 </v>
   <v>       0.28571429       0.00000000      -0.28571429 </v>
   <v>       0.28571429       0.28571429      -0.42857143 </v>
   <v>      -0.28571429       0.42857143      -0.28571429 </v>
   <v>       0.42857143      -0.28571429      -0.28571429 </v>
   <v>       0.42857143       0.42857143       0.00000000 </v>
   <v>       0.00000000       0.42857143       0.42857143 </v>
   <v>       0.42857143       0.00000000       0.42857143 </v>
   <v>      -0.42857143       0.42857143       0.00000000 </v>
   <v>       0.00000000      -0.42857143       0.42857143 </v>
   <v>       0.42857143       0.00000000      -0.42857143 </v>
   <v>       0.42857143       0.42857143      -0.14285714 </v>
   <v>      -0.42857143       0.14285714      -0.42857143 </v>
   <v>       0.14285714      -0.42857143      -0.42857143 </v>
   <v>       0.42857143       0.28571429       0.14285714 </v>
   <v>       0.14285714       0.42857143       0.28571429 </v>
   <v>       0.28571429       0.14285714       0.42857143 </v>
   <v>       0.28571429       0.14285714      -0.14285714 </v>
   <v>       0.42857143       0.14285714       0.28571429 </v>
   <v>       0.14285714      -0.28571429      -0.14285714 </v>
   <v>       0.14285714       0.28571429      -0.14285714 </v>
   <v>       0.14285714      -0.14285714      -0.28571429 </v>
   <v>       0.28571429       0.42857143       0.14285714 </v>
   <v>      -0.14285714       0.14285714      -0.28571429 </v>
   <v>      -0.28571429       0.14285714      -0.14285714 </v>
   <v>       0.14285714       0.28571429       0.42857143 </v>
   <v>      -0.42857143       0.28571429       0.14285714 </v>
   <v>       0.14285714      -0.42857143       0.28571429 </v>
   <v>       0.28571429       0.14285714      -0.42857143 </v>
   <v>       0.28571429       0.14285714      -0.28571429 </v>
   <v>      -0.42857143       0.28571429       0.42857143 </v>
   <v>       0.14285714      -0.42857143      -0.14285714 </v>
   <v>       0.14285714       0.42857143      -0.14285714 </v>
   <v>       0.28571429      -0.14285714      -0.28571429 </v>
   <v>      -0.42857143      -0.28571429       0.42857143 </v>
   <v>       0.42857143      -0.42857143       0.28571429 </v>
   <v>      -0.14285714       0.14285714      -0.42857143 </v>
   <v>      -0.28571429       0.28571429       0.14285714 </v>
   <v>      -0.14285714       0.14285714       0.42857143 </v>
   <v>      -0.28571429       0.28571429      -0.14285714 </v>
   <v>       0.42857143      -0.42857143      -0.28571429 </v>
   <v>       0.28571429       0.42857143      -0.42857143 </v>
   <v>      -0.42857143      -0.14285714       0.14285714 </v>
   <v>       0.14285714      -0.28571429       0.28571429 </v>
   <v>       0.42857143      -0.14285714       0.14285714 </v>
   <v>      -0.14285714      -0.28571429       0.28571429 </v>
   <v>      -0.28571429       0.42857143      -0.42857143 </v>
   <v>       0.42857143      -0.14285714      -0.28571429 </v>
   <v>      -0.28571429       0.42857143      -0.14285714 </v>
   <v>      -0.14285714      -0.28571429       0.42857143 </v>
   <v>      -0.42857143       0.42857143       0.14285714 </v>
   <v>       0.14285714      -0.42857143       0.42857143 </v>
   <v>       0.42857143       0.14285714      -0.42857143 </v>
   <v>       0.42857143       0.28571429      -0.14285714 </v>
   <v>      -0.42857143       0.14285714       0.42857143 </v>
   <v>       0.14285714      -0.42857143      -0.28571429 </v>
   <v>       0.28571429       0.42857143      -0.14285714 </v>
   <v>       0.14285714      -0.28571429      -0.42857143 </v>
   <v>       0.42857143      -0.42857143       0.14285714 </v>
   <v>      -0.28571429       0.14285714      -0.42857143 </v>
   <v>      -0.42857143       0.14285714      -0.28571429 </v>
   <v>       0.14285714       0.42857143      -0.42857143 </v>
   <v>      -0.28571429       0.42857143       0.14285714 </v>
   <v>       0.14285714      -0.28571429       0.42857143 </v>
   <v>       0.42857143       0.14285714      -0.28571429 </v>
   <v>       0.42857143       0.28571429      -0.28571429 </v>
   <v>      -0.28571429       0.28571429      -0.42857143 </v>
   <v>       0.14285714       0.42857143      -0.28571429 </v>
   <v>       0.28571429      -0.28571429      -0.42857143 </v>
   <v>       0.42857143      -0.28571429       0.28571429 </v>
   <v>      -0.28571429       0.14285714       0.42857143 </v>
   <v>      -0.28571429       0.42857143       0.28571429 </v>
   <v>       0.28571429       0.42857143      -0.28571429 </v>
   <v>       0.42857143      -0.28571429       0.14285714 </v>
  </varray>
  <varray name="weights" >
   <v>       0.00291545 </v>
   <v>       0.00583090 </v>
   <v>       0.00583090 </v>
   <v>       0.00583090 </v>
   <v>       0.00583090 </v>
   <v>       0.00583090 </v>
   <v>       0.00583090 </v>
   <v>       0.00583090 </v>
   <v>       0.00583090 </v>
   <v>       0.00583090 </v>
   <v>       0.00583090 </v>
   <v>       0.00583090 </v>
   <v>       0.00583090 </v>
   <v>       0.00583090 </v>
   <v>       0.00583090 </v>
   <v>       0.00583090 </v>
   <v>       0.00583090 </v>
   <v>       0.00583090 </v>
   <v>       0.00583090 </v>
   <v>       0.00583090 </v>
   <v>       0.00583090 </v>
   <v>       0.00583090 </v>
   <v>       0.00583090 </v>
   <v>       0.00583090 </v>
   <v>       0.00583090 </v>
   <v>       0.00583090 </v>
   <v>       0.00583090 </v>
   <v>       0.00583090 </v>
   <v>       0.00583090 </v>
   <v>       0.00583090 </v>
   <v>       0.00583090 </v>
   <v>       0.00583090 </v>
   <v>       0.00583090 </v>
   <v>       0.00583090 </v>
   <v>       0.00583090 </v>
   <v>       0.00583090 </v>
   <v>       0.00583090 </v>
   <v>       0.00583090 </v>
   <v>       0.00583090 </v>
   <v>       0.00583090 </v>
   <v>       0.00583090 </v>
   <v>       0.00583090 </v>
   <v>       0.00583090 </v>
   <v>       0.00583090 </v>
   <v>       0.00583090 </v>
   <v>       0.00583090 </v>
   <v>       0.00583090 </v>
   <v>       0.00583090 </v>
   <v>       0.00583090 </v>
   <v>       0.00583090 </v>
   <v>       0.00583090 </v>
   <v>       0.00583090 </v>
   <v>       0.00583090 </v>
   <v>       0.00583090 </v>
   <v>       0.00583090 </v>
   <v>       0.00583090 </v>
   <v>       0.00583090 </v>
   <v>       0.00583090 </v>
   <v>       0.00583090 </v>
   <v>       0.00583090 </v>
   <v>       0.00583090 </v>
   <v>       0.00583090 </v>
   <v>       0.00583090 </v>
   <v>       0.00583090 </v>
   <v>       0.00583090 </v>
   <v>       0.00583090 </v>
   <v>       0.00583090 </v>
   <v>       0.00583090 </v>
   <v>       0.00583090 </v>
   <v>       0.00583090 </v>
   <v>       0.00583090 </v>
   <v>       0.00583090 </v>
   <v>       0.00583090 </v>
   <v>       0.00583090 </v>
   <v>       0.00583090 </v>
   <v>       0.00583090 </v>
   <v>       0.00583090 </v>
   <v>       0.00583090 </v>
   <v>       0.00583090 </v>
   <v>       0.00583090 </v>
   <v>       0.00583090 </v>
   <v>       0.00583090 </v>
   <v>       0.00583090 </v>
   <v>       0.00583090 </v>
   <v>       0.00583090 </v>
   <v>       0.00583090 </v>
   <v>       0.00583090 </v>
   <v>       0.00583090 </v>
   <v>       0.00583090 </v>
   <v>       0.00583090 </v>
   <v>       0.00583090 </v>
   <v>       0.00583090 </v>
   <v>       0.00583090 </v>
   <v>       0.00583090 </v>
   <v>       0.00583090 </v>
   <v>       0.00583090 </v>
   <v>       0.00583090 </v>
   <v>       0.00583090 </v>
   <v>       0.00583090 </v>
   <v>       0.00583090 </v>
   <v>       0.00583090 </v>
   <v>       0.00583090 </v>
   <v>       0.00583090 </v>
   <v>       0.00583090 </v>
   <v>       0.00583090 </v>
   <v>       0.00583090 </v>
   <v>       0.00583090 </v>
   <v>       0.00583090 </v>
   <v>       0.00583090 </v>
   <v>       0.00583090 </v>
   <v>       0.00583090 </v>
   <v>       0.00583090 </v>
   <v>       0.00583090 </v>
   <v>       0.00583090 </v>
   <v>       0.00583090 </v>
   <v>       0.00583090 </v>
   <v>       0.00583090 </v>
   <v>       0.00583090 </v>
   <v>       0.00583090 </v>
   <v>       0.00583090 </v>
   <v>       0.00583090 </v>
   <v>       0.00583090 </v>
   <v>       0.00583090 </v>
   <v>       0.00583090 </v>
   <v>       0.00583090 </v>
   <v>       0.00583090 </v>
   <v>       0.00583090 </v>
   <v>       0.00583090 </v>
   <v>       0.00583090 </v>
   <v>       0.00583090 </v>
   <v>       0.00583090 </v>
   <v>       0.00583090 </v>
   <v>       0.00583090 </v>
   <v>       0.00583090 </v>
   <v>       0.00583090 </v>
   <v>       0.00583090 </v>
   <v>       0.00583090 </v>
   <v>       0.00583090 </v>
   <v>       0.00583090 </v>
   <v>       0.00583090 </v>
   <v>       0.00583090 </v>
   <v>       0.00583090 </v>
   <v>       0.00583090 </v>
   <v>       0.00583090 </v>
   <v>       0.00583090 </v>
   <v>       0.00583090 </v>
   <v>       0.00583090 </v>
   <v>       0.00583090 </v>
   <v>       0.00583090 </v>
   <v>       0.00583090 </v>
   <v>       0.00583090 </v>
   <v>       0.00583090 </v>
   <v>       0.00583090 </v>
   <v>       0.00583090 </v>
   <v>       0.00583090 </v>
   <v>       0.00583090 </v>
   <v>       0.00583090 </v>
   <v>       0.00583090 </v>
   <v>       0.00583090 </v>
   <v>       0.00583090 </v>
   <v>       0.00583090 </v>
   <v>       0.00583090 </v>
   <v>       0.00583090 </v>
   <v>       0.00583090 </v>
   <v>       0.00583090 </v>
   <v>       0.00583090 </v>
   <v>       0.00583090 </v>
   <v>       0.00583090 </v>
   <v>       0.00583090 </v>
   <v>       0.00583090 </v>
   <v>       0.00583090 </v>
   <v>       0.00583090 </v>
  </varray>
 </kpoints>
 <parameters>
  <separator name="general" >
   <i type="string" name="SYSTEM">unknown system</i>
   <i type="logical" name="LCOMPAT"> F  </i>
  </separator>
  <separator name="electronic" >
   <i type="string" name="PREC">normal</i>
   <i name="ENMAX">    420.00000000</i>
   <i name="ENAUG">    358.96600000</i>
   <i name="EDIFF">      0.00010000</i>
   <i type="int" name="IALGO">    38</i>
   <i type="int" name="IWAVPR">    10</i>
   <i type="int" name="NBANDS">    12</i>
   <i type="int" name="NBANDSLOW">    -1</i>
   <i type="int" name="NBANDSHIGH">    -1</i>
   <i name="NELECT">     10.00000000</i>
   <i type="int" name="TURBO">     0</i>
   <i type="int" name="IRESTART">     0</i>
   <i type="int" name="NREBOOT">     0</i>
   <i type="int" name="NMIN">     0</i>
   <i name="EREF">      0.00000000</i>
   <separator name="electronic smearing" >
    <i type="int" name="ISMEAR">     0</i>
    <i name="SIGMA">      0.05000000</i>
    <i name="KSPACING">      0.50000000</i>
    <i type="logical" name="KGAMMA"> T  </i>
    <i type="logical" name="KBLOWUP"> T  </i>
   </separator>
   <separator name="electronic projectors" >
    <i type="logical" name="LREAL"> F  </i>
    <v name="ROPT">      0.00000000</v>
    <i type="int" name="LMAXPAW">  -100</i>
    <i type="int" name="LMAXMIX">     2</i>
    <i type="logical" name="NLSPLINE"> F  </i>
   </separator>
   <separator name="electronic startup" >
    <i type="int" name="ISTART">     0</i>
    <i type="int" name="ICHARG">     2</i>
    <i type="int" name="INIWAV">     1</i>
   </separator>
   <separator name="electronic spin" >
    <i type="int" name="ISPIN">     1</i>
    <i type="logical" name="LNONCOLLINEAR"> F  </i>
    <v name="MAGMOM">      1.00000000</v>
    <i name="NUPDOWN">     -1.00000000</i>
    <i type="logical" name="LSORBIT"> F  </i>
    <v name="SAXIS">      0.00000000      0.00000000      1.00000000</v>
    <i type="logical" name="LSPIRAL"> F  </i>
    <v name="QSPIRAL">      0.00000000      0.00000000      0.00000000</v>
    <i type="logical" name="LZEROZ"> F  </i>
   </separator>
   <separator name="electronic exchange-correlation" >
    <i type="logical" name="LASPH"> F  </i>
    <i type="logical" name="LMETAGGA"> F  </i>
   </separator>
   <separator name="electronic convergence" >
    <i type="int" name="NELM">    60</i>
    <i type="int" name="NELMDL">    -5</i>
    <i type="int" name="NELMIN">     4</i>
    <i name="ENINI">    420.00000000</i>
    <separator name="electronic convergence detail" >
     <i type="logical" name="LDIAG"> T  </i>
     <i type="logical" name="LSUBROT"> F  </i>
     <i name="WEIMIN">      0.00000000</i>
     <i name="EBREAK">      0.00000208</i>
     <i name="DEPER">      0.30000000</i>
     <i type="int" name="NRMM">     4</i>
     <i name="TIME">      0.40000000</i>
    </separator>
   </separator>
   <separator name="electronic mixer" >
    <i name="AMIX">      0.40000000</i>
    <i name="BMIX">      1.00000000</i>
    <i name="AMIN">      0.10000000</i>
    <i name="AMIX_MAG">      1.60000000</i>
    <i name="BMIX_MAG">      1.00000000</i>
    <separator name="electronic mixer details" >
     <i type="int" name="IMIX">     4</i>
     <i type="logical" name="MIXFIRST"> F  </i>
     <i type="int" name="MAXMIX">   -45</i>
     <i name="WC">    100.00000000</i>
     <i type="int" name="INIMIX">     1</i>
     <i type="int" name="MIXPRE">     1</i>
     <i type="int" name="MREMOVE">     5</i>
    </separator>
   </separator>
   <separator name="electronic dipolcorrection" >
    <i type="logical" name="LDIPOL"> F  </i>
    <i type="logical" name="LMONO"> F  </i>
    <i type="int" name="IDIPOL">     0</i>
    <i name="EPSILON">      1.00000000</i>
    <v name="DIPOL">   -100.00000000   -100.00000000   -100.00000000</v>
    <i name="EFIELD">      0.00000000</i>
   </separator>
  </separator>
  <separator name="grids" >
   <i type="int" name="NGX">    12</i>
   <i type="int" name="NGY">    12</i>
   <i type="int" name="NGZ">    12</i>
   <i type="int" name="NGXF">    24</i>
   <i type="int" name="NGYF">    24</i>
   <i type="int" name="NGZF">    24</i>
   <i type="logical" name="ADDGRID"> F  </i>
  </separator>
  <separator name="ionic" >
   <i type="int" name="NSW">     0</i>
   <i type="int" name="IBRION">    -1</i>
   <i type="int" name="MDALGO">     0</i>
   <i type="int" name="ISIF">     0</i>
   <i name="PSTRESS">      0.00000000</i>
   <i name="EDIFFG">     -0.03000000</i>
   <i type="int" name="NFREE">     1</i>
   <i name="POTIM">      0.50000000</i>
   <i name="SMASS">     -3.00000000</i>
   <i name="SCALEE">      1.00000000</i>
  </separator>
  <separator name="ionic md" >
   <i name="TEBEG">      0.00010000</i>
   <i name="TEEND">      0.00010000</i>
   <i type="int" name="NBLOCK">     1</i>
   <i type="int" name="KBLOCK">     1</i>
   <i type="int" name="NPACO">   256</i>
   <i name="APACO">     16.00000000</i>
  </separator>
  <separator name="symmetry" >
   <i type="int" name="ISYM">     0</i>
   <i name="SYMPREC">      0.00001000</i>
  </separator>
  <separator name="dos" >
   <i type="int" name="LORBIT">    11</i>
   <v name="RWIGS">     -1.00000000</v>
   <i type="int" name="NEDOS">   301</i>
   <i name="EMIN">     10.00000000</i>
   <i name="EMAX">    -10.00000000</i>
   <i name="EFERMI">      0.00000000</i>
  </separator>
  <separator name="writing" >
   <i type="int" name="NWRITE">     2</i>
   <i type="logical" name="LWAVE"> F  </i>
   <i type="logical" name="LDOWNSAMPLE"> F  </i>
   <i type="logical" name="LCHARG"> T  </i>
   <i type="logical" name="LPARD"> F  </i>
   <i type="logical" name="LVTOT"> F  </i>
   <i type="logical" name="LVHAR"> F  </i>
   <i type="logical" name="LELF"> F  </i>
   <i type="logical" name="LOPTICS"> F  </i>
   <v name="STM">      0.00000000      0.00000000      0.00000000      0.00000000      0.00000000      0.00000000      0.00000000</v>
  </separator>
  <separator name="performance" >
   <i type="int" name="NPAR">     4</i>
   <i type="int" name="NSIM">     4</i>
   <i type="int" name="NBLK">    -1</i>
   <i type="logical" name="LPLANE"> T  </i>
   <i type="logical" name="LSCALAPACK"> T  </i>
   <i type="logical" name="LSCAAWARE"> F  </i>
   <i type="logical" name="LSCALU"> F  </i>
   <i type="logical" name="LASYNC"> F  </i>
   <i type="logical" name="LORBITALREAL"> F  </i>
  </separator>
  <separator name="miscellaneous" >
   <i type="int" name="IDIOT">     3</i>
   <i type="int" name="PHON_NSTRUCT">    -1</i>
   <i type="logical" name="LMUSIC"> F  </i>
   <v name="POMASS">    195.08000000</v>
   <v name="DARWINR">      0.00000000</v>
   <v name="DARWINV">      1.00000000</v>
   <i type="logical" name="LCORR"> T  </i>
  </separator>
  <i type="logical" name="GGA_COMPAT"> T  </i>
  <i type="logical" name="LBERRY"> F  </i>
  <i type="int" name="ICORELEVEL">     0</i>
  <i type="logical" name="LDAU"> F  </i>
  <i type="int" name="I_CONSTRAINED_M">     0</i>
  <separator name="electronic exchange-correlation" >
   <i type="string" name="GGA">RP</i>
   <i type="int" name="VOSKOWN">     0</i>
   <i type="logical" name="LHFCALC"> F  </i>
   <i type="string" name="PRECFOCK"></i>
   <i type="logical" name="LSYMGRAD"> F  </i>
   <i type="logical" name="LHFONE"> F  </i>
   <i type="logical" name="LRHFCALC"> F  </i>
   <i type="logical" name="LTHOMAS"> F  </i>
   <i type="logical" name="LMODELHF"> F  </i>
   <i type="logical" name="LFOCKACE"> F  </i>
   <i name="ENCUT4O">     -1.00000000</i>
   <i type="int" name="EXXOEP">     0</i>
   <i type="int" name="FOURORBIT">     0</i>
   <i name="AEXX">      0.00000000</i>
   <i name="HFALPHA">      0.00000000</i>
   <i name="MCALPHA">      0.00000000</i>
   <i name="ALDAX">      1.00000000</i>
   <i name="AGGAX">      1.00000000</i>
   <i name="ALDAC">      1.00000000</i>
   <i name="AGGAC">      1.00000000</i>
   <i type="int" name="NKREDX">     1</i>
   <i type="int" name="NKREDY">     1</i>
   <i type="int" name="NKREDZ">     1</i>
   <i type="logical" name="SHIFTRED"> F  </i>
   <i type="logical" name="ODDONLY"> F  </i>
   <i type="logical" name="EVENONLY"> F  </i>
   <i type="int" name="LMAXFOCK">     0</i>
   <i type="int" name="NMAXFOCKAE">     0</i>
   <i type="logical" name="LFOCKAEDFT"> F  </i>
   <i name="HFSCREEN">      0.00000000</i>
   <i name="HFSCREENC">      0.00000000</i>
   <i type="int" name="NBANDSGWLOW">     0</i>
  </separator>
  <separator name="vdW DFT" >
   <i type="logical" name="LUSE_VDW"> F  </i>
   <i name="Zab_VDW">     -0.84910000</i>
   <i name="PARAM1">      0.12340000</i>
   <i name="PARAM2">      1.00000000</i>
   <i name="PARAM3">      0.00000000</i>
  </separator>
  <separator name="model GW" >
   <i type="int" name="MODEL_GW">     0</i>
   <i name="MODEL_EPS0">      6.42561074</i>
   <i name="MODEL_ALPHA">      1.00000000</i>
  </separator>
  <separator name="linear response parameters" >
   <i type="logical" name="LEPSILON"> F  </i>
   <i type="logical" name="LRPA"> F  </i>
   <i type="logical" name="LNABLA"> F  </i>
   <i type="logical" name="LVEL"> F  </i>
   <i type="int" name="KINTER">     0</i>
   <i name="CSHIFT">      0.10000000</i>
   <i name="OMEGAMAX">     -1.00000000</i>
   <i name="DEG_THRESHOLD">      0.00200000</i>
   <i name="RTIME">     -0.10000000</i>
   <i name="WPLASMAI">      0.00000000</i>
   <v name="DFIELD">      0.00000000      0.00000000      0.00000000</v>
   <v name="WPLASMA">      0.00000000      0.00000000      0.00000000      0.00000000      0.00000000      0.00000000      0.00000000      0.00000000      0.00000000</v>
  </separator>
  <separator name="orbital magnetization" >
   <i type="logical" name="NUCIND"> F  </i>
   <v name="MAGPOS">      0.00000000      0.00000000      0.00000000</v>
   <i type="logical" name="LNICSALL"> T  </i>
   <i type="logical" name="ORBITALMAG"> F  </i>
   <i type="logical" name="LMAGBLOCH"> F  </i>
   <i type="logical" name="LCHIMAG"> F  </i>
   <i type="logical" name="LGAUGE"> T  </i>
   <i type="int" name="MAGATOM">     0</i>
   <v name="MAGDIPOL">      0.00000000      0.00000000      0.00000000</v>
   <v name="AVECCONST">      0.00000000      0.00000000      0.00000000</v>
  </separator>
  <separator name="response functions" >
   <i type="logical" name="LFINITE_TEMPERATURE"> F  </i>
   <i type="logical" name="LADDER"> F  </i>
   <i type="logical" name="LRPAFORCE"> F  </i>
   <i type="logical" name="LFXC"> F  </i>
   <i type="logical" name="LHARTREE"> T  </i>
   <i type="int" name="IBSE">     0</i>
   <v type="int" name="KPOINT">    -1     0     0     0</v>
   <i type="logical" name="LTCTC"> F  </i>
   <i type="logical" name="LTCTE"> F  </i>
   <i type="logical" name="LTETE"> F  </i>
   <i type="logical" name="LTRIPLET"> F  </i>
   <i type="logical" name="LFXCEPS"> F  </i>
   <i type="logical" name="LFXHEG"> F  </i>
   <i type="int" name="NATURALO">     2</i>
   <i type="logical" name="LHOLEGF"> F  </i>
   <i type="logical" name="L2ORDER"> F  </i>
   <i type="logical" name="LDMP1"> F  </i>
   <i type="logical" name="LMP2LT"> F  </i>
   <i type="logical" name="LSMP2LT"> F  </i>
   <i type="logical" name="LGWLF"> F  </i>
   <i name="ENCUTGW">     -2.00000000</i>
   <i name="ENCUTGWSOFT">     -2.00000000</i>
   <i name="ENCUTLF">     -1.00000000</i>
   <i type="logical" name="LESF_SPLINES"> F  </i>
   <i type="int" name="LMAXMP2">    -1</i>
   <i name="SCISSOR">      0.00000000</i>
   <i type="int" name="NOMEGA">     0</i>
   <i type="int" name="NOMEGAR">     0</i>
   <i type="int" name="NBANDSGW">    -1</i>
   <i type="int" name="NBANDSO">    -1</i>
   <i type="int" name="NBANDSV">    -1</i>
   <i type="int" name="NELM">    60</i>
   <i type="int" name="NELMHF">     1</i>
   <i type="int" name="DIM">     3</i>
   <i type="int" name="IESPILON">     4</i>
   <i type="int" name="ANTIRES">     0</i>
   <i name="OMEGAMAX">    -30.00000000</i>
   <i name="OMEGAMIN">    -30.00000000</i>
   <i name="OMEGATL">   -200.00000000</i>
   <i type="int" name="OMEGAGRID">     0</i>
   <i name="CSHIFT">     -0.10000000</i>
   <i type="logical" name="LSELFENERGY"> F  </i>
   <i type="logical" name="LSPECTRAL"> F  </i>
   <i type="logical" name="LSPECTRALGW"> F  </i>
   <i type="logical" name="LSINGLES"> F  </i>
   <i type="logical" name="LFERMIGW"> F  </i>
   <i type="logical" name="ODDONLYGW"> F  </i>
   <i type="logical" name="EVENONLYGW"> F  </i>
   <i type="int" name="NKREDLFX">     1</i>
   <i type="int" name="NKREDLFY">     1</i>
   <i type="int" name="NKREDLFZ">     1</i>
   <i type="int" name="MAXMEM">  2800</i>
   <i type="int" name="TELESCOPE">     0</i>
   <i type="int" name="NTAUPAR">    -1</i>
   <i type="int" name="NOMEGAPAR">    -1</i>
   <i name="DAMP_NEWTON">      0.80000001</i>
   <i name="LAMBDA">      1.00000000</i>
  </separator>
  <separator name="External order field" >
   <i name="OFIELD_KAPPA">      0.00000000</i>
   <v name="OFIELD_K">      0.00000000      0.00000000      0.00000000</v>
   <i name="OFIELD_Q6_NEAR">      0.00000000</i>
   <i name="OFIELD_Q6_FAR">      0.00000000</i>
   <i name="OFIELD_A">      0.00000000</i>
  </separator>
 </parameters>
 <atominfo>
  <atoms>       1 </atoms>
  <types>       1 </types>
  <array name="atoms" >
   <dimension dim="1">ion</dimension>
   <field type="string">element</field>
   <field type="int">atomtype</field>
   <set>
    <rc><c>Pt</c><c>   1</c></rc>
   </set>
  </array>
  <array name="atomtypes" >
   <dimension dim="1">type</dimension>
   <field type="int">atomspertype</field>
   <field type="string">element</field>
   <field>mass</field>
   <field>valence</field>
   <field type="string">pseudopotential</field>
   <set>
    <rc><c>   1</c><c>Pt</c><c>    195.08000000</c><c>     10.00000000</c><c>  PAW_PBE Pt 04Feb2005                  </c></rc>
   </set>
  </array>
 </atominfo>
 <structure name="initialpos" >
  <crystal>
   <varray name="basis" >
    <v>       2.14267800       0.00000400       1.23708800 </v>
    <v>       0.71423100       2.02013400       1.23708800 </v>
    <v>       0.00000600       0.00000400       2.47415700 </v>
   </varray>
   <i name="volume">     10.70935123 </i>
   <varray name="rec_basis" >
    <v>       0.46670649      -0.16500647      -0.00000087 </v>
    <v>      -0.00000046       0.49501732      -0.00000080 </v>
    <v>      -0.23335481      -0.16500669       0.40417890 </v>
   </varray>
  </crystal>
  <varray name="positions" >
   <v>       0.00000000       0.00000000       0.00000000 </v>
  </varray>
 </structure>
 <calculation>
  <scstep>
   <time name="dav">    0.64    0.64</time>
   <time name="total">    0.65    0.65</time>
   <energy>
    <i name="alphaZ">     88.76192870 </i>
    <i name="ewald">   -943.43351802 </i>
    <i name="hartreedc">    -44.63009305 </i>
    <i name="XCdc">      5.39818990 </i>
    <i name="pawpsdc">    696.70595042 </i>
    <i name="pawaedc">   -667.45827301 </i>
    <i name="eentropy">     -0.00119600 </i>
    <i name="bandstr">    176.07471283 </i>
    <i name="atom">    728.31920932 </i>
    <i name="e_fr_energy">     39.73691109 </i>
    <i name="e_wo_entrp">     39.73810709 </i>
    <i name="e_0_energy">     39.73750909 </i>
   </energy>
  </scstep>
  <scstep>
   <time name="dav">    0.72    0.72</time>
   <time name="total">    0.72    0.72</time>
   <energy>
    <i name="e_fr_energy">     -2.34116736 </i>
    <i name="e_wo_entrp">     -2.33711277 </i>
    <i name="e_0_energy">     -2.33914006 </i>
   </energy>
  </scstep>
  <scstep>
   <time name="dav">    0.72    0.72</time>
   <time name="total">    0.72    0.72</time>
   <energy>
    <i name="e_fr_energy">     -2.83711266 </i>
    <i name="e_wo_entrp">     -2.83227879 </i>
    <i name="e_0_energy">     -2.83469572 </i>
   </energy>
  </scstep>
  <scstep>
   <time name="dav">    0.73    0.73</time>
   <time name="total">    0.73    0.73</time>
   <energy>
    <i name="e_fr_energy">     -2.83843053 </i>
    <i name="e_wo_entrp">     -2.83359689 </i>
    <i name="e_0_energy">     -2.83601371 </i>
   </energy>
  </scstep>
  <scstep>
   <time name="dav">    0.74    0.74</time>
   <time name="total">    0.75    0.75</time>
   <energy>
    <i name="e_fr_energy">     -2.83843647 </i>
    <i name="e_wo_entrp">     -2.83360283 </i>
    <i name="e_0_energy">     -2.83601965 </i>
   </energy>
  </scstep>
  <scstep>
   <time name="dav">    0.73    0.73</time>
   <time name="total">    0.75    0.75</time>
   <energy>
    <i name="e_fr_energy">     -2.63897311 </i>
    <i name="e_wo_entrp">     -2.63414921 </i>
    <i name="e_0_energy">     -2.63656116 </i>
   </energy>
  </scstep>
  <scstep>
   <time name="dav">    0.73    0.73</time>
   <time name="total">    0.75    0.75</time>
   <energy>
    <i name="e_fr_energy">     -2.54512470 </i>
    <i name="e_wo_entrp">     -2.54028786 </i>
    <i name="e_0_energy">     -2.54270628 </i>
   </energy>
  </scstep>
  <scstep>
   <time name="dav">    0.69    0.70</time>
   <time name="total">    0.71    0.72</time>
   <energy>
    <i name="e_fr_energy">     -2.54285731 </i>
    <i name="e_wo_entrp">     -2.53801659 </i>
    <i name="e_0_energy">     -2.54043695 </i>
   </energy>
  </scstep>
  <scstep>
   <time name="dav">    0.67    0.68</time>
   <time name="total">    0.68    0.69</time>
   <energy>
    <i name="alphaZ">     88.76192870 </i>
    <i name="ewald">   -943.43351802 </i>
    <i name="hartreedc">    -36.81107492 </i>
    <i name="XCdc">      5.19565268 </i>
    <i name="pawpsdc">   1538.27764160 </i>
    <i name="pawaedc">  -1515.03292835 </i>
    <i name="eentropy">     -0.00484033 </i>
    <i name="bandstr">    132.18508400 </i>
    <i name="atom">    728.31920932 </i>
    <i name="e_fr_energy">     -2.54284531 </i>
    <i name="e_wo_entrp">     -2.53800498 </i>
    <i name="e_0_energy">     -2.54042515 </i>
   </energy>
  </scstep>
  <structure>
   <crystal>
    <varray name="basis" >
     <v>       2.14267800       0.00000400       1.23708800 </v>
     <v>       0.71423100       2.02013400       1.23708800 </v>
     <v>       0.00000600       0.00000400       2.47415700 </v>
    </varray>
    <i name="volume">     10.70935123 </i>
    <varray name="rec_basis" >
     <v>       0.46670649      -0.16500647      -0.00000087 </v>
     <v>      -0.00000046       0.49501732      -0.00000080 </v>
     <v>      -0.23335481      -0.16500669       0.40417890 </v>
    </varray>
   </crystal>
   <varray name="positions" >
    <v>       0.00000000       0.00000000       0.00000000 </v>
   </varray>
  </structure>
  <varray name="forces" >
   <v>      -0.00001996      -0.00000285      -0.00002240 </v>
  </varray>
  <energy>
   <i name="e_fr_energy">     -2.54284531 </i>
   <i name="e_wo_entrp">     -2.53800498 </i>
   <i name="e_0_energy">     -2.54042515 </i>
  </energy>
  <time name="totalsc">    6.53    6.56</time>
  <eigenvalues>
   <array>
    <dimension dim="1">band</dimension>
    <dimension dim="2">kpoint</dimension>
    <dimension dim="3">spin</dimension>
    <field>eigene</field>
    <field>occ</field>
    <set>
     <set comment="spin 1">
      <set comment="kpoint 1">
       <r>    4.6830    1.0000 </r>
       <r>   12.7797    1.0000 </r>
       <r>   12.7798    1.0000 </r>
       <r>   12.7798    1.0000 </r>
       <r>   16.5398    1.0000 </r>
       <r>   16.5398    1.0000 </r>
       <r>   32.0187    0.0000 </r>
       <r>   39.1216    0.0000 </r>
       <r>   39.1219    0.0000 </r>
       <r>   39.1219    0.0000 </r>
       <r>   45.8466    0.0000 </r>
       <r>   50.4782    0.0000 </r>
      </set>
      <set comment="kpoint 2">
       <r>    5.7935    1.0000 </r>
       <r>   12.2453    1.0000 </r>
       <r>   13.2161    1.0000 </r>
       <r>   13.2163    1.0000 </r>
       <r>   16.2760    1.0000 </r>
       <r>   16.2761    1.0000 </r>
       <r>   33.9048    0.0000 </r>
       <r>   36.1293    0.0000 </r>
       <r>   41.1635    0.0000 </r>
       <r>   41.1638    0.0000 </r>
       <r>   49.4803    0.0000 </r>
       <r>   50.4000    0.0000 </r>
      </set>
      <set comment="kpoint 3">
       <r>    5.7935    1.0000 </r>
       <r>   12.2453    1.0000 </r>
       <r>   13.2161    1.0000 </r>
       <r>   13.2163    1.0000 </r>
       <r>   16.2760    1.0000 </r>
       <r>   16.2761    1.0000 </r>
       <r>   33.9048    0.0000 </r>
       <r>   36.1293    0.0000 </r>
       <r>   41.1635    0.0000 </r>
       <r>   41.1638    0.0000 </r>
       <r>   49.4803    0.0000 </r>
       <r>   50.4000    0.0000 </r>
      </set>
      <set comment="kpoint 4">
       <r>    5.7935    1.0000 </r>
       <r>   12.2453    1.0000 </r>
       <r>   13.2161    1.0000 </r>
       <r>   13.2163    1.0000 </r>
       <r>   16.2760    1.0000 </r>
       <r>   16.2760    1.0000 </r>
       <r>   33.9048    0.0000 </r>
       <r>   36.1294    0.0000 </r>
       <r>   41.1635    0.0000 </r>
       <r>   41.1638    0.0000 </r>
       <r>   49.4803    0.0000 </r>
       <r>   50.4000    0.0000 </r>
      </set>
      <set comment="kpoint 5">
       <r>    5.7935    1.0000 </r>
       <r>   12.2452    1.0000 </r>
       <r>   13.2162    1.0000 </r>
       <r>   13.2162    1.0000 </r>
       <r>   16.2761    1.0000 </r>
       <r>   16.2761    1.0000 </r>
       <r>   33.9047    0.0000 </r>
       <r>   36.1292    0.0000 </r>
       <r>   41.1637    0.0000 </r>
       <r>   41.1637    0.0000 </r>
       <r>   49.4801    0.0000 </r>
       <r>   50.4007    0.0000 </r>
      </set>
      <set comment="kpoint 6">
       <r>    7.5628    1.0000 </r>
       <r>   12.8097    1.0000 </r>
       <r>   13.2543    1.0000 </r>
       <r>   13.2545    1.0000 </r>
       <r>   17.1481    1.0000 </r>
       <r>   17.1481    1.0000 </r>
       <r>   32.0128    0.0000 </r>
       <r>   36.8771    0.0000 </r>
       <r>   45.8738    0.0000 </r>
       <r>   46.3850    0.0000 </r>
       <r>   46.3851    0.0000 </r>
       <r>   46.5490    0.0000 </r>
      </set>
      <set comment="kpoint 7">
       <r>    7.5628    1.0000 </r>
       <r>   12.8097    1.0000 </r>
       <r>   13.2543    1.0000 </r>
       <r>   13.2545    1.0000 </r>
       <r>   17.1481    1.0000 </r>
       <r>   17.1481    1.0000 </r>
       <r>   32.0128    0.0000 </r>
       <r>   36.8771    0.0000 </r>
       <r>   45.8738    0.0000 </r>
       <r>   46.3850    0.0000 </r>
       <r>   46.4004    0.0000 </r>
       <r>   46.5492    0.0000 </r>
      </set>
      <set comment="kpoint 8">
       <r>    7.5628    1.0000 </r>
       <r>   12.8097    1.0000 </r>
       <r>   13.2543    1.0000 </r>
       <r>   13.2545    1.0000 </r>
       <r>   17.1481    1.0000 </r>
       <r>   17.1481    1.0000 </r>
       <r>   32.0128    0.0000 </r>
       <r>   36.8771    0.0000 </r>
       <r>   45.8738    0.0000 </r>
       <r>   46.3851    0.0000 </r>
       <r>   46.3852    0.0000 </r>
       <r>   46.5492    0.0000 </r>
      </set>
      <set comment="kpoint 9">
       <r>    7.5627    1.0000 </r>
       <r>   12.8097    1.0000 </r>
       <r>   13.2544    1.0000 </r>
       <r>   13.2544    1.0000 </r>
       <r>   17.1482    1.0000 </r>
       <r>   17.1482    1.0000 </r>
       <r>   32.0128    0.0000 </r>
       <r>   36.8767    0.0000 </r>
       <r>   45.8737    0.0000 </r>
       <r>   46.3851    0.0000 </r>
       <r>   46.3877    0.0000 </r>
       <r>   46.5491    0.0000 </r>
      </set>
      <set comment="kpoint 10">
       <r>    7.5968    1.0000 </r>
       <r>   12.6956    1.0000 </r>
       <r>   12.6959    1.0000 </r>
       <r>   16.4996    1.0000 </r>
       <r>   19.1182    1.0000 </r>
       <r>   19.1184    1.0000 </r>
       <r>   29.3293    0.0000 </r>
       <r>   32.5351    0.0000 </r>
       <r>   40.9784    0.0000 </r>
       <r>   40.9786    0.0000 </r>
       <r>   50.5363    0.0000 </r>
       <r>   50.5621    0.0000 </r>
      </set>
      <set comment="kpoint 11">
       <r>    7.5968    1.0000 </r>
       <r>   12.6956    1.0000 </r>
       <r>   12.6959    1.0000 </r>
       <r>   16.4996    1.0000 </r>
       <r>   19.1182    1.0000 </r>
       <r>   19.1184    1.0000 </r>
       <r>   29.3293    0.0000 </r>
       <r>   32.5351    0.0000 </r>
       <r>   40.9783    0.0000 </r>
       <r>   40.9786    0.0000 </r>
       <r>   50.5372    0.0000 </r>
       <r>   50.5622    0.0000 </r>
      </set>
      <set comment="kpoint 12">
       <r>    7.5968    1.0000 </r>
       <r>   12.6956    1.0000 </r>
       <r>   12.6959    1.0000 </r>
       <r>   16.4996    1.0000 </r>
       <r>   19.1182    1.0000 </r>
       <r>   19.1184    1.0000 </r>
       <r>   29.3293    0.0000 </r>
       <r>   32.5351    0.0000 </r>
       <r>   40.9783    0.0000 </r>
       <r>   40.9786    0.0000 </r>
       <r>   50.5334    0.0000 </r>
       <r>   50.5622    0.0000 </r>
      </set>
      <set comment="kpoint 13">
       <r>    7.5968    1.0000 </r>
       <r>   12.6958    1.0000 </r>
       <r>   12.6958    1.0000 </r>
       <r>   16.4995    1.0000 </r>
       <r>   19.1182    1.0000 </r>
       <r>   19.1182    1.0000 </r>
       <r>   29.3291    0.0000 </r>
       <r>   32.5351    0.0000 </r>
       <r>   40.9786    0.0000 </r>
       <r>   40.9786    0.0000 </r>
       <r>   50.5407    0.0000 </r>
       <r>   50.5624    0.0000 </r>
      </set>
      <set comment="kpoint 14">
       <r>    6.1821    1.0000 </r>
       <r>   11.5975    1.0000 </r>
       <r>   13.7148    1.0000 </r>
       <r>   13.7149    1.0000 </r>
       <r>   15.1433    1.0000 </r>
       <r>   17.0141    1.0000 </r>
       <r>   34.7968    0.0000 </r>
       <r>   37.6452    0.0000 </r>
       <r>   40.0833    0.0000 </r>
       <r>   40.0836    0.0000 </r>
       <r>   50.2619    0.0000 </r>
       <r>   50.2827    0.0000 </r>
      </set>
      <set comment="kpoint 15">
       <r>    6.1821    1.0000 </r>
       <r>   11.5975    1.0000 </r>
       <r>   13.7148    1.0000 </r>
       <r>   13.7149    1.0000 </r>
       <r>   15.1433    1.0000 </r>
       <r>   17.0141    1.0000 </r>
       <r>   34.7968    0.0000 </r>
       <r>   37.6452    0.0000 </r>
       <r>   40.0833    0.0000 </r>
       <r>   40.0836    0.0000 </r>
       <r>   50.2620    0.0000 </r>
       <r>   50.2730    0.0000 </r>
      </set>
      <set comment="kpoint 16">
       <r>    6.1821    1.0000 </r>
       <r>   11.5975    1.0000 </r>
       <r>   13.7148    1.0000 </r>
       <r>   13.7149    1.0000 </r>
       <r>   15.1433    1.0000 </r>
       <r>   17.0141    1.0000 </r>
       <r>   34.7968    0.0000 </r>
       <r>   37.6452    0.0000 </r>
       <r>   40.0833    0.0000 </r>
       <r>   40.0836    0.0000 </r>
       <r>   50.2620    0.0000 </r>
       <r>   50.2626    0.0000 </r>
      </set>
      <set comment="kpoint 17">
       <r>    8.0102    1.0000 </r>
       <r>   10.9839    1.0000 </r>
       <r>   13.2335    1.0000 </r>
       <r>   14.3117    1.0000 </r>
       <r>   16.2318    1.0000 </r>
       <r>   17.8378    1.0000 </r>
       <r>   34.7269    0.0000 </r>
       <r>   38.0154    0.0000 </r>
       <r>   41.6611    0.0000 </r>
       <r>   41.9935    0.0000 </r>
       <r>   47.4951    0.0000 </r>
       <r>   47.8717    0.0000 </r>
      </set>
      <set comment="kpoint 18">
       <r>    8.0102    1.0000 </r>
       <r>   10.9839    1.0000 </r>
       <r>   13.2335    1.0000 </r>
       <r>   14.3117    1.0000 </r>
       <r>   16.2318    1.0000 </r>
       <r>   17.8378    1.0000 </r>
       <r>   34.7269    0.0000 </r>
       <r>   38.0154    0.0000 </r>
       <r>   41.6611    0.0000 </r>
       <r>   41.9935    0.0000 </r>
       <r>   47.4950    0.0000 </r>
       <r>   47.8717    0.0000 </r>
      </set>
      <set comment="kpoint 19">
       <r>    8.0102    1.0000 </r>
       <r>   10.9839    1.0000 </r>
       <r>   13.2335    1.0000 </r>
       <r>   14.3117    1.0000 </r>
       <r>   16.2318    1.0000 </r>
       <r>   17.8378    1.0000 </r>
       <r>   34.7269    0.0000 </r>
       <r>   38.0154    0.0000 </r>
       <r>   41.6611    0.0000 </r>
       <r>   41.9935    0.0000 </r>
       <r>   47.4951    0.0000 </r>
       <r>   47.8717    0.0000 </r>
      </set>
      <set comment="kpoint 20">
       <r>    8.0102    1.0000 </r>
       <r>   10.9839    1.0000 </r>
       <r>   13.2335    1.0000 </r>
       <r>   14.3118    1.0000 </r>
       <r>   16.2318    1.0000 </r>
       <r>   17.8378    1.0000 </r>
       <r>   34.7268    0.0000 </r>
       <r>   38.0154    0.0000 </r>
       <r>   41.6613    0.0000 </r>
       <r>   41.9934    0.0000 </r>
       <r>   47.4952    0.0000 </r>
       <r>   47.8716    0.0000 </r>
      </set>
      <set comment="kpoint 21">
       <r>    8.0101    1.0000 </r>
       <r>   10.9839    1.0000 </r>
       <r>   13.2335    1.0000 </r>
       <r>   14.3117    1.0000 </r>
       <r>   16.2319    1.0000 </r>
       <r>   17.8379    1.0000 </r>
       <r>   34.7269    0.0000 </r>
       <r>   38.0152    0.0000 </r>
       <r>   41.6613    0.0000 </r>
       <r>   41.9934    0.0000 </r>
       <r>   47.4951    0.0000 </r>
       <r>   47.8716    0.0000 </r>
      </set>
      <set comment="kpoint 22">
       <r>    8.0102    1.0000 </r>
       <r>   10.9839    1.0000 </r>
       <r>   13.2335    1.0000 </r>
       <r>   14.3117    1.0000 </r>
       <r>   16.2318    1.0000 </r>
       <r>   17.8378    1.0000 </r>
       <r>   34.7269    0.0000 </r>
       <r>   38.0154    0.0000 </r>
       <r>   41.6611    0.0000 </r>
       <r>   41.9935    0.0000 </r>
       <r>   47.4951    0.0000 </r>
       <r>   47.8717    0.0000 </r>
      </set>
      <set comment="kpoint 23">
       <r>    8.0102    1.0000 </r>
       <r>   10.9839    1.0000 </r>
       <r>   13.2335    1.0000 </r>
       <r>   14.3118    1.0000 </r>
       <r>   16.2318    1.0000 </r>
       <r>   17.8378    1.0000 </r>
       <r>   34.7268    0.0000 </r>
       <r>   38.0154    0.0000 </r>
       <r>   41.6613    0.0000 </r>
       <r>   41.9934    0.0000 </r>
       <r>   47.4953    0.0000 </r>
       <r>   47.8716    0.0000 </r>
      </set>
      <set comment="kpoint 24">
       <r>    8.0101    1.0000 </r>
       <r>   10.9839    1.0000 </r>
       <r>   13.2335    1.0000 </r>
       <r>   14.3117    1.0000 </r>
       <r>   16.2319    1.0000 </r>
       <r>   17.8379    1.0000 </r>
       <r>   34.7269    0.0000 </r>
       <r>   38.0152    0.0000 </r>
       <r>   41.6612    0.0000 </r>
       <r>   41.9934    0.0000 </r>
       <r>   47.4951    0.0000 </r>
       <r>   47.8716    0.0000 </r>
      </set>
      <set comment="kpoint 25">
       <r>    8.0102    1.0000 </r>
       <r>   10.9839    1.0000 </r>
       <r>   13.2335    1.0000 </r>
       <r>   14.3117    1.0000 </r>
       <r>   16.2318    1.0000 </r>
       <r>   17.8378    1.0000 </r>
       <r>   34.7269    0.0000 </r>
       <r>   38.0154    0.0000 </r>
       <r>   41.6611    0.0000 </r>
       <r>   41.9935    0.0000 </r>
       <r>   47.4951    0.0000 </r>
       <r>   47.8717    0.0000 </r>
      </set>
      <set comment="kpoint 26">
       <r>    8.0102    1.0000 </r>
       <r>   10.9839    1.0000 </r>
       <r>   13.2335    1.0000 </r>
       <r>   14.3118    1.0000 </r>
       <r>   16.2318    1.0000 </r>
       <r>   17.8378    1.0000 </r>
       <r>   34.7268    0.0000 </r>
       <r>   38.0154    0.0000 </r>
       <r>   41.6613    0.0000 </r>
       <r>   41.9934    0.0000 </r>
       <r>   47.4953    0.0000 </r>
       <r>   47.8717    0.0000 </r>
      </set>
      <set comment="kpoint 27">
       <r>    8.0101    1.0000 </r>
       <r>   10.9839    1.0000 </r>
       <r>   13.2335    1.0000 </r>
       <r>   14.3117    1.0000 </r>
       <r>   16.2319    1.0000 </r>
       <r>   17.8379    1.0000 </r>
       <r>   34.7269    0.0000 </r>
       <r>   38.0152    0.0000 </r>
       <r>   41.6613    0.0000 </r>
       <r>   41.9934    0.0000 </r>
       <r>   47.4951    0.0000 </r>
       <r>   47.8716    0.0000 </r>
      </set>
      <set comment="kpoint 28">
       <r>    8.0102    1.0000 </r>
       <r>   10.9839    1.0000 </r>
       <r>   13.2335    1.0000 </r>
       <r>   14.3117    1.0000 </r>
       <r>   16.2318    1.0000 </r>
       <r>   17.8378    1.0000 </r>
       <r>   34.7269    0.0000 </r>
       <r>   38.0154    0.0000 </r>
       <r>   41.6611    0.0000 </r>
       <r>   41.9935    0.0000 </r>
       <r>   47.4950    0.0000 </r>
       <r>   47.8717    0.0000 </r>
      </set>
      <set comment="kpoint 29">
       <r>    8.4915    1.0000 </r>
       <r>   11.9600    1.0000 </r>
       <r>   13.1971    1.0000 </r>
       <r>   13.8193    1.0000 </r>
       <r>   19.4214    1.0000 </r>
       <r>   20.1027    0.0000 </r>
       <r>   30.6365    0.0000 </r>
       <r>   34.8810    0.0000 </r>
       <r>   39.9991    0.0000 </r>
       <r>   42.3067    0.0000 </r>
       <r>   49.0985    0.0000 </r>
       <r>   50.0720    0.0000 </r>
      </set>
      <set comment="kpoint 30">
       <r>    8.4915    1.0000 </r>
       <r>   11.9600    1.0000 </r>
       <r>   13.1971    1.0000 </r>
       <r>   13.8193    1.0000 </r>
       <r>   19.4214    1.0000 </r>
       <r>   20.1027    0.0000 </r>
       <r>   30.6365    0.0000 </r>
       <r>   34.8810    0.0000 </r>
       <r>   39.9991    0.0000 </r>
       <r>   42.3067    0.0000 </r>
       <r>   49.0985    0.0000 </r>
       <r>   50.0719    0.0000 </r>
      </set>
      <set comment="kpoint 31">
       <r>    8.4915    1.0000 </r>
       <r>   11.9600    1.0000 </r>
       <r>   13.1971    1.0000 </r>
       <r>   13.8193    1.0000 </r>
       <r>   19.4214    1.0000 </r>
       <r>   20.1027    0.0000 </r>
       <r>   30.6365    0.0000 </r>
       <r>   34.8810    0.0000 </r>
       <r>   39.9991    0.0000 </r>
       <r>   42.3067    0.0000 </r>
       <r>   49.0985    0.0000 </r>
       <r>   50.0722    0.0000 </r>
      </set>
      <set comment="kpoint 32">
       <r>    8.4915    1.0000 </r>
       <r>   11.9600    1.0000 </r>
       <r>   13.1971    1.0000 </r>
       <r>   13.8194    1.0000 </r>
       <r>   19.4215    1.0000 </r>
       <r>   20.1027    0.0000 </r>
       <r>   30.6365    0.0000 </r>
       <r>   34.8809    0.0000 </r>
       <r>   39.9992    0.0000 </r>
       <r>   42.3066    0.0000 </r>
       <r>   49.0987    0.0000 </r>
       <r>   50.0719    0.0000 </r>
      </set>
      <set comment="kpoint 33">
       <r>    8.4915    1.0000 </r>
       <r>   11.9600    1.0000 </r>
       <r>   13.1970    1.0000 </r>
       <r>   13.8194    1.0000 </r>
       <r>   19.4214    1.0000 </r>
       <r>   20.1027    0.0000 </r>
       <r>   30.6364    0.0000 </r>
       <r>   34.8810    0.0000 </r>
       <r>   39.9993    0.0000 </r>
       <r>   42.3066    0.0000 </r>
       <r>   49.0986    0.0000 </r>
       <r>   50.0720    0.0000 </r>
      </set>
      <set comment="kpoint 34">
       <r>    8.4915    1.0000 </r>
       <r>   11.9600    1.0000 </r>
       <r>   13.1971    1.0000 </r>
       <r>   13.8193    1.0000 </r>
       <r>   19.4214    1.0000 </r>
       <r>   20.1027    0.0000 </r>
       <r>   30.6365    0.0000 </r>
       <r>   34.8810    0.0000 </r>
       <r>   39.9991    0.0000 </r>
       <r>   42.3067    0.0000 </r>
       <r>   49.0985    0.0000 </r>
       <r>   50.0721    0.0000 </r>
      </set>
      <set comment="kpoint 35">
       <r>    8.4915    1.0000 </r>
       <r>   11.9600    1.0000 </r>
       <r>   13.1970    1.0000 </r>
       <r>   13.8194    1.0000 </r>
       <r>   19.4215    1.0000 </r>
       <r>   20.1027    0.0000 </r>
       <r>   30.6365    0.0000 </r>
       <r>   34.8809    0.0000 </r>
       <r>   39.9992    0.0000 </r>
       <r>   42.3066    0.0000 </r>
       <r>   49.0987    0.0000 </r>
       <r>   50.0719    0.0000 </r>
      </set>
      <set comment="kpoint 36">
       <r>    8.4915    1.0000 </r>
       <r>   11.9600    1.0000 </r>
       <r>   13.1970    1.0000 </r>
       <r>   13.8194    1.0000 </r>
       <r>   19.4214    1.0000 </r>
       <r>   20.1027    0.0000 </r>
       <r>   30.6364    0.0000 </r>
       <r>   34.8810    0.0000 </r>
       <r>   39.9993    0.0000 </r>
       <r>   42.3066    0.0000 </r>
       <r>   49.0986    0.0000 </r>
       <r>   50.0719    0.0000 </r>
      </set>
      <set comment="kpoint 37">
       <r>    8.4915    1.0000 </r>
       <r>   11.9600    1.0000 </r>
       <r>   13.1971    1.0000 </r>
       <r>   13.8193    1.0000 </r>
       <r>   19.4214    1.0000 </r>
       <r>   20.1027    0.0000 </r>
       <r>   30.6365    0.0000 </r>
       <r>   34.8810    0.0000 </r>
       <r>   39.9991    0.0000 </r>
       <r>   42.3067    0.0000 </r>
       <r>   49.0985    0.0000 </r>
       <r>   50.0721    0.0000 </r>
      </set>
      <set comment="kpoint 38">
       <r>    8.4915    1.0000 </r>
       <r>   11.9600    1.0000 </r>
       <r>   13.1970    1.0000 </r>
       <r>   13.8194    1.0000 </r>
       <r>   19.4215    1.0000 </r>
       <r>   20.1027    0.0000 </r>
       <r>   30.6365    0.0000 </r>
       <r>   34.8809    0.0000 </r>
       <r>   39.9992    0.0000 </r>
       <r>   42.3066    0.0000 </r>
       <r>   49.0987    0.0000 </r>
       <r>   50.0719    0.0000 </r>
      </set>
      <set comment="kpoint 39">
       <r>    8.4915    1.0000 </r>
       <r>   11.9600    1.0000 </r>
       <r>   13.1970    1.0000 </r>
       <r>   13.8194    1.0000 </r>
       <r>   19.4214    1.0000 </r>
       <r>   20.1027    0.0000 </r>
       <r>   30.6364    0.0000 </r>
       <r>   34.8810    0.0000 </r>
       <r>   39.9993    0.0000 </r>
       <r>   42.3066    0.0000 </r>
       <r>   49.0986    0.0000 </r>
       <r>   50.0724    0.0000 </r>
      </set>
      <set comment="kpoint 40">
       <r>    8.4915    1.0000 </r>
       <r>   11.9600    1.0000 </r>
       <r>   13.1971    1.0000 </r>
       <r>   13.8193    1.0000 </r>
       <r>   19.4214    1.0000 </r>
       <r>   20.1027    0.0000 </r>
       <r>   30.6365    0.0000 </r>
       <r>   34.8810    0.0000 </r>
       <r>   39.9991    0.0000 </r>
       <r>   42.3067    0.0000 </r>
       <r>   49.0985    0.0000 </r>
       <r>   50.0719    0.0000 </r>
      </set>
      <set comment="kpoint 41">
       <r>    8.4789    1.0000 </r>
       <r>   11.7669    1.0000 </r>
       <r>   13.4400    1.0000 </r>
       <r>   14.8455    1.0000 </r>
       <r>   18.9753    1.0000 </r>
       <r>   22.7526    0.0000 </r>
       <r>   28.1479    0.0000 </r>
       <r>   33.9139    0.0000 </r>
       <r>   39.0642    0.0000 </r>
       <r>   40.7104    0.0000 </r>
       <r>   50.3016    0.0000 </r>
       <r>   50.6028    0.0000 </r>
      </set>
      <set comment="kpoint 42">
       <r>    8.4789    1.0000 </r>
       <r>   11.7669    1.0000 </r>
       <r>   13.4400    1.0000 </r>
       <r>   14.8455    1.0000 </r>
       <r>   18.9753    1.0000 </r>
       <r>   22.7526    0.0000 </r>
       <r>   28.1479    0.0000 </r>
       <r>   33.9139    0.0000 </r>
       <r>   39.0642    0.0000 </r>
       <r>   40.7104    0.0000 </r>
       <r>   50.3016    0.0000 </r>
       <r>   50.5889    0.0000 </r>
      </set>
      <set comment="kpoint 43">
       <r>    8.4789    1.0000 </r>
       <r>   11.7669    1.0000 </r>
       <r>   13.4400    1.0000 </r>
       <r>   14.8455    1.0000 </r>
       <r>   18.9753    1.0000 </r>
       <r>   22.7526    0.0000 </r>
       <r>   28.1479    0.0000 </r>
       <r>   33.9139    0.0000 </r>
       <r>   39.0642    0.0000 </r>
       <r>   40.7104    0.0000 </r>
       <r>   50.3017    0.0000 </r>
       <r>   50.5772    0.0000 </r>
      </set>
      <set comment="kpoint 44">
       <r>    8.4789    1.0000 </r>
       <r>   11.7668    1.0000 </r>
       <r>   13.4401    1.0000 </r>
       <r>   14.8455    1.0000 </r>
       <r>   18.9754    1.0000 </r>
       <r>   22.7524    0.0000 </r>
       <r>   28.1480    0.0000 </r>
       <r>   33.9138    0.0000 </r>
       <r>   39.0641    0.0000 </r>
       <r>   40.7105    0.0000 </r>
       <r>   50.3018    0.0000 </r>
       <r>   50.5761    0.0000 </r>
      </set>
      <set comment="kpoint 45">
       <r>    8.4789    1.0000 </r>
       <r>   11.7669    1.0000 </r>
       <r>   13.4401    1.0000 </r>
       <r>   14.8454    1.0000 </r>
       <r>   18.9753    1.0000 </r>
       <r>   22.7524    0.0000 </r>
       <r>   28.1477    0.0000 </r>
       <r>   33.9139    0.0000 </r>
       <r>   39.0643    0.0000 </r>
       <r>   40.7106    0.0000 </r>
       <r>   50.3016    0.0000 </r>
       <r>   50.6115    0.0000 </r>
      </set>
      <set comment="kpoint 46">
       <r>    8.4789    1.0000 </r>
       <r>   11.7669    1.0000 </r>
       <r>   13.4400    1.0000 </r>
       <r>   14.8455    1.0000 </r>
       <r>   18.9753    1.0000 </r>
       <r>   22.7526    0.0000 </r>
       <r>   28.1479    0.0000 </r>
       <r>   33.9139    0.0000 </r>
       <r>   39.0642    0.0000 </r>
       <r>   40.7104    0.0000 </r>
       <r>   50.3017    0.0000 </r>
       <r>   50.5851    0.0000 </r>
      </set>
      <set comment="kpoint 47">
       <r>    8.4789    1.0000 </r>
       <r>   11.7668    1.0000 </r>
       <r>   13.4401    1.0000 </r>
       <r>   14.8455    1.0000 </r>
       <r>   18.9754    1.0000 </r>
       <r>   22.7524    0.0000 </r>
       <r>   28.1480    0.0000 </r>
       <r>   33.9138    0.0000 </r>
       <r>   39.0641    0.0000 </r>
       <r>   40.7105    0.0000 </r>
       <r>   50.3016    0.0000 </r>
       <r>   50.5854    0.0000 </r>
      </set>
      <set comment="kpoint 48">
       <r>    8.4789    1.0000 </r>
       <r>   11.7669    1.0000 </r>
       <r>   13.4401    1.0000 </r>
       <r>   14.8454    1.0000 </r>
       <r>   18.9753    1.0000 </r>
       <r>   22.7525    0.0000 </r>
       <r>   28.1477    0.0000 </r>
       <r>   33.9139    0.0000 </r>
       <r>   39.0643    0.0000 </r>
       <r>   40.7106    0.0000 </r>
       <r>   50.3016    0.0000 </r>
       <r>   50.5767    0.0000 </r>
      </set>
      <set comment="kpoint 49">
       <r>    8.4789    1.0000 </r>
       <r>   11.7669    1.0000 </r>
       <r>   13.4400    1.0000 </r>
       <r>   14.8455    1.0000 </r>
       <r>   18.9753    1.0000 </r>
       <r>   22.7526    0.0000 </r>
       <r>   28.1479    0.0000 </r>
       <r>   33.9139    0.0000 </r>
       <r>   39.0642    0.0000 </r>
       <r>   40.7104    0.0000 </r>
       <r>   50.3017    0.0000 </r>
       <r>   50.5753    0.0000 </r>
      </set>
      <set comment="kpoint 50">
       <r>    8.4789    1.0000 </r>
       <r>   11.7668    1.0000 </r>
       <r>   13.4401    1.0000 </r>
       <r>   14.8455    1.0000 </r>
       <r>   18.9754    1.0000 </r>
       <r>   22.7524    0.0000 </r>
       <r>   28.1480    0.0000 </r>
       <r>   33.9138    0.0000 </r>
       <r>   39.0641    0.0000 </r>
       <r>   40.7105    0.0000 </r>
       <r>   50.3020    0.0000 </r>
       <r>   50.5773    0.0000 </r>
      </set>
      <set comment="kpoint 51">
       <r>    8.4789    1.0000 </r>
       <r>   11.7669    1.0000 </r>
       <r>   13.4401    1.0000 </r>
       <r>   14.8454    1.0000 </r>
       <r>   18.9753    1.0000 </r>
       <r>   22.7524    0.0000 </r>
       <r>   28.1477    0.0000 </r>
       <r>   33.9139    0.0000 </r>
       <r>   39.0643    0.0000 </r>
       <r>   40.7106    0.0000 </r>
       <r>   50.3016    0.0000 </r>
       <r>   50.5864    0.0000 </r>
      </set>
      <set comment="kpoint 52">
       <r>    8.4789    1.0000 </r>
       <r>   11.7669    1.0000 </r>
       <r>   13.4400    1.0000 </r>
       <r>   14.8455    1.0000 </r>
       <r>   18.9753    1.0000 </r>
       <r>   22.7526    0.0000 </r>
       <r>   28.1479    0.0000 </r>
       <r>   33.9139    0.0000 </r>
       <r>   39.0642    0.0000 </r>
       <r>   40.7104    0.0000 </r>
       <r>   50.3019    0.0000 </r>
       <r>   50.5922    0.0000 </r>
      </set>
      <set comment="kpoint 53">
       <r>    8.7527    1.0000 </r>
       <r>   12.2588    1.0000 </r>
       <r>   12.7551    1.0000 </r>
       <r>   13.7752    1.0000 </r>
       <r>   16.4992    1.0000 </r>
       <r>   20.4839    0.0000 </r>
       <r>   32.2927    0.0000 </r>
       <r>   36.1608    0.0000 </r>
       <r>   39.8435    0.0000 </r>
       <r>   43.6300    0.0000 </r>
       <r>   46.1854    0.0000 </r>
       <r>   50.5094    0.0000 </r>
      </set>
      <set comment="kpoint 54">
       <r>    8.7527    1.0000 </r>
       <r>   12.2588    1.0000 </r>
       <r>   12.7551    1.0000 </r>
       <r>   13.7752    1.0000 </r>
       <r>   16.4992    1.0000 </r>
       <r>   20.4839    0.0000 </r>
       <r>   32.2927    0.0000 </r>
       <r>   36.1608    0.0000 </r>
       <r>   39.8435    0.0000 </r>
       <r>   43.6300    0.0000 </r>
       <r>   46.1854    0.0000 </r>
       <r>   50.5121    0.0000 </r>
      </set>
      <set comment="kpoint 55">
       <r>    8.7527    1.0000 </r>
       <r>   12.2588    1.0000 </r>
       <r>   12.7551    1.0000 </r>
       <r>   13.7752    1.0000 </r>
       <r>   16.4992    1.0000 </r>
       <r>   20.4839    0.0000 </r>
       <r>   32.2927    0.0000 </r>
       <r>   36.1608    0.0000 </r>
       <r>   39.8435    0.0000 </r>
       <r>   43.6300    0.0000 </r>
       <r>   46.1854    0.0000 </r>
       <r>   50.5375    0.0000 </r>
      </set>
      <set comment="kpoint 56">
       <r>    8.7527    1.0000 </r>
       <r>   12.2587    1.0000 </r>
       <r>   12.7550    1.0000 </r>
       <r>   13.7753    1.0000 </r>
       <r>   16.4993    1.0000 </r>
       <r>   20.4838    0.0000 </r>
       <r>   32.2926    0.0000 </r>
       <r>   36.1607    0.0000 </r>
       <r>   39.8433    0.0000 </r>
       <r>   43.6301    0.0000 </r>
       <r>   46.1855    0.0000 </r>
       <r>   50.5114    0.0000 </r>
      </set>
      <set comment="kpoint 57">
       <r>    8.7527    1.0000 </r>
       <r>   12.2587    1.0000 </r>
       <r>   12.7550    1.0000 </r>
       <r>   13.7753    1.0000 </r>
       <r>   16.4993    1.0000 </r>
       <r>   20.4838    0.0000 </r>
       <r>   32.2925    0.0000 </r>
       <r>   36.1607    0.0000 </r>
       <r>   39.8435    0.0000 </r>
       <r>   43.6300    0.0000 </r>
       <r>   46.1854    0.0000 </r>
       <r>   50.5134    0.0000 </r>
      </set>
      <set comment="kpoint 58">
       <r>    8.7527    1.0000 </r>
       <r>   12.2588    1.0000 </r>
       <r>   12.7551    1.0000 </r>
       <r>   13.7752    1.0000 </r>
       <r>   16.4992    1.0000 </r>
       <r>   20.4839    0.0000 </r>
       <r>   32.2927    0.0000 </r>
       <r>   36.1608    0.0000 </r>
       <r>   39.8435    0.0000 </r>
       <r>   43.6300    0.0000 </r>
       <r>   46.1854    0.0000 </r>
       <r>   50.5130    0.0000 </r>
      </set>
      <set comment="kpoint 59">
       <r>    8.7527    1.0000 </r>
       <r>   12.2587    1.0000 </r>
       <r>   12.7550    1.0000 </r>
       <r>   13.7753    1.0000 </r>
       <r>   16.4993    1.0000 </r>
       <r>   20.4838    0.0000 </r>
       <r>   32.2926    0.0000 </r>
       <r>   36.1607    0.0000 </r>
       <r>   39.8433    0.0000 </r>
       <r>   43.6301    0.0000 </r>
       <r>   46.1855    0.0000 </r>
       <r>   50.5615    0.0000 </r>
      </set>
      <set comment="kpoint 60">
       <r>    8.7527    1.0000 </r>
       <r>   12.2587    1.0000 </r>
       <r>   12.7550    1.0000 </r>
       <r>   13.7753    1.0000 </r>
       <r>   16.4993    1.0000 </r>
       <r>   20.4838    0.0000 </r>
       <r>   32.2926    0.0000 </r>
       <r>   36.1607    0.0000 </r>
       <r>   39.8435    0.0000 </r>
       <r>   43.6300    0.0000 </r>
       <r>   46.1854    0.0000 </r>
       <r>   50.5199    0.0000 </r>
      </set>
      <set comment="kpoint 61">
       <r>    8.7527    1.0000 </r>
       <r>   12.2588    1.0000 </r>
       <r>   12.7551    1.0000 </r>
       <r>   13.7752    1.0000 </r>
       <r>   16.4992    1.0000 </r>
       <r>   20.4839    0.0000 </r>
       <r>   32.2927    0.0000 </r>
       <r>   36.1608    0.0000 </r>
       <r>   39.8435    0.0000 </r>
       <r>   43.6300    0.0000 </r>
       <r>   46.1854    0.0000 </r>
       <r>   50.5271    0.0000 </r>
      </set>
      <set comment="kpoint 62">
       <r>    8.7527    1.0000 </r>
       <r>   12.2587    1.0000 </r>
       <r>   12.7550    1.0000 </r>
       <r>   13.7753    1.0000 </r>
       <r>   16.4993    1.0000 </r>
       <r>   20.4838    0.0000 </r>
       <r>   32.2926    0.0000 </r>
       <r>   36.1607    0.0000 </r>
       <r>   39.8433    0.0000 </r>
       <r>   43.6301    0.0000 </r>
       <r>   46.1855    0.0000 </r>
       <r>   50.5187    0.0000 </r>
      </set>
      <set comment="kpoint 63">
       <r>    8.7527    1.0000 </r>
       <r>   12.2587    1.0000 </r>
       <r>   12.7550    1.0000 </r>
       <r>   13.7753    1.0000 </r>
       <r>   16.4993    1.0000 </r>
       <r>   20.4838    0.0000 </r>
       <r>   32.2925    0.0000 </r>
       <r>   36.1607    0.0000 </r>
       <r>   39.8435    0.0000 </r>
       <r>   43.6300    0.0000 </r>
       <r>   46.1854    0.0000 </r>
       <r>   50.5125    0.0000 </r>
      </set>
      <set comment="kpoint 64">
       <r>    8.7527    1.0000 </r>
       <r>   12.2588    1.0000 </r>
       <r>   12.7551    1.0000 </r>
       <r>   13.7752    1.0000 </r>
       <r>   16.4992    1.0000 </r>
       <r>   20.4839    0.0000 </r>
       <r>   32.2927    0.0000 </r>
       <r>   36.1608    0.0000 </r>
       <r>   39.8435    0.0000 </r>
       <r>   43.6300    0.0000 </r>
       <r>   46.1854    0.0000 </r>
       <r>   50.5108    0.0000 </r>
      </set>
      <set comment="kpoint 65">
       <r>    7.3889    1.0000 </r>
       <r>   11.4947    1.0000 </r>
       <r>   13.4319    1.0000 </r>
       <r>   13.9934    1.0000 </r>
       <r>   15.1133    1.0000 </r>
       <r>   17.6941    1.0000 </r>
       <r>   34.9307    0.0000 </r>
       <r>   36.6009    0.0000 </r>
       <r>   40.8472    0.0000 </r>
       <r>   44.4006    0.0000 </r>
       <r>   45.3568    0.0000 </r>
       <r>   50.2356    0.0000 </r>
      </set>
      <set comment="kpoint 66">
       <r>    7.3889    1.0000 </r>
       <r>   11.4947    1.0000 </r>
       <r>   13.4319    1.0000 </r>
       <r>   13.9934    1.0000 </r>
       <r>   15.1133    1.0000 </r>
       <r>   17.6941    1.0000 </r>
       <r>   34.9307    0.0000 </r>
       <r>   36.6009    0.0000 </r>
       <r>   40.8472    0.0000 </r>
       <r>   44.4006    0.0000 </r>
       <r>   45.3568    0.0000 </r>
       <r>   50.2342    0.0000 </r>
      </set>
      <set comment="kpoint 67">
       <r>    7.3889    1.0000 </r>
       <r>   11.4947    1.0000 </r>
       <r>   13.4319    1.0000 </r>
       <r>   13.9934    1.0000 </r>
       <r>   15.1133    1.0000 </r>
       <r>   17.6941    1.0000 </r>
       <r>   34.9307    0.0000 </r>
       <r>   36.6009    0.0000 </r>
       <r>   40.8472    0.0000 </r>
       <r>   44.4006    0.0000 </r>
       <r>   45.3568    0.0000 </r>
       <r>   50.2326    0.0000 </r>
      </set>
      <set comment="kpoint 68">
       <r>    7.3889    1.0000 </r>
       <r>   11.4946    1.0000 </r>
       <r>   13.4318    1.0000 </r>
       <r>   13.9935    1.0000 </r>
       <r>   15.1134    1.0000 </r>
       <r>   17.6941    1.0000 </r>
       <r>   34.9307    0.0000 </r>
       <r>   36.6008    0.0000 </r>
       <r>   40.8472    0.0000 </r>
       <r>   44.4004    0.0000 </r>
       <r>   45.3568    0.0000 </r>
       <r>   50.2348    0.0000 </r>
      </set>
      <set comment="kpoint 69">
       <r>    7.3889    1.0000 </r>
       <r>   11.4946    1.0000 </r>
       <r>   13.4317    1.0000 </r>
       <r>   13.9935    1.0000 </r>
       <r>   15.1134    1.0000 </r>
       <r>   17.6941    1.0000 </r>
       <r>   34.9307    0.0000 </r>
       <r>   36.6008    0.0000 </r>
       <r>   40.8472    0.0000 </r>
       <r>   44.4004    0.0000 </r>
       <r>   45.3568    0.0000 </r>
       <r>   50.2332    0.0000 </r>
      </set>
      <set comment="kpoint 70">
       <r>    7.3889    1.0000 </r>
       <r>   11.4946    1.0000 </r>
       <r>   13.4317    1.0000 </r>
       <r>   13.9935    1.0000 </r>
       <r>   15.1134    1.0000 </r>
       <r>   17.6941    1.0000 </r>
       <r>   34.9307    0.0000 </r>
       <r>   36.6008    0.0000 </r>
       <r>   40.8472    0.0000 </r>
       <r>   44.4004    0.0000 </r>
       <r>   45.3568    0.0000 </r>
       <r>   50.2335    0.0000 </r>
      </set>
      <set comment="kpoint 71">
       <r>    8.4548    1.0000 </r>
       <r>    9.5456    1.0000 </r>
       <r>   14.4885    1.0000 </r>
       <r>   16.3323    1.0000 </r>
       <r>   16.3324    1.0000 </r>
       <r>   18.1940    1.0000 </r>
       <r>   38.3408    0.0000 </r>
       <r>   38.3987    0.0000 </r>
       <r>   38.3989    0.0000 </r>
       <r>   41.3265    0.0000 </r>
       <r>   45.4453    0.0000 </r>
       <r>   49.3755    0.0000 </r>
      </set>
      <set comment="kpoint 72">
       <r>    8.4548    1.0000 </r>
       <r>    9.5456    1.0000 </r>
       <r>   14.4885    1.0000 </r>
       <r>   16.3323    1.0000 </r>
       <r>   16.3324    1.0000 </r>
       <r>   18.1940    1.0000 </r>
       <r>   38.3408    0.0000 </r>
       <r>   38.3987    0.0000 </r>
       <r>   38.3990    0.0000 </r>
       <r>   41.3265    0.0000 </r>
       <r>   45.4453    0.0000 </r>
       <r>   49.3756    0.0000 </r>
      </set>
      <set comment="kpoint 73">
       <r>    8.4548    1.0000 </r>
       <r>    9.5456    1.0000 </r>
       <r>   14.4885    1.0000 </r>
       <r>   16.3323    1.0000 </r>
       <r>   16.3324    1.0000 </r>
       <r>   18.1940    1.0000 </r>
       <r>   38.3408    0.0000 </r>
       <r>   38.3987    0.0000 </r>
       <r>   38.3989    0.0000 </r>
       <r>   41.3265    0.0000 </r>
       <r>   45.4453    0.0000 </r>
       <r>   49.3756    0.0000 </r>
      </set>
      <set comment="kpoint 74">
       <r>    8.5844    1.0000 </r>
       <r>    9.4435    1.0000 </r>
       <r>   14.3483    1.0000 </r>
       <r>   16.5216    1.0000 </r>
       <r>   19.6061    0.2092 </r>
       <r>   20.6366    0.0000 </r>
       <r>   32.3432    0.0000 </r>
       <r>   36.3685    0.0000 </r>
       <r>   37.2361    0.0000 </r>
       <r>   43.2318    0.0000 </r>
       <r>   46.8534    0.0000 </r>
       <r>   49.6904    0.0000 </r>
      </set>
      <set comment="kpoint 75">
       <r>    8.5844    1.0000 </r>
       <r>    9.4435    1.0000 </r>
       <r>   14.3483    1.0000 </r>
       <r>   16.5216    1.0000 </r>
       <r>   19.6061    0.2092 </r>
       <r>   20.6366    0.0000 </r>
       <r>   32.3432    0.0000 </r>
       <r>   36.3685    0.0000 </r>
       <r>   37.2361    0.0000 </r>
       <r>   43.2318    0.0000 </r>
       <r>   46.8534    0.0000 </r>
       <r>   49.6904    0.0000 </r>
      </set>
      <set comment="kpoint 76">
       <r>    8.5844    1.0000 </r>
       <r>    9.4435    1.0000 </r>
       <r>   14.3483    1.0000 </r>
       <r>   16.5216    1.0000 </r>
       <r>   19.6061    0.2092 </r>
       <r>   20.6366    0.0000 </r>
       <r>   32.3432    0.0000 </r>
       <r>   36.3685    0.0000 </r>
       <r>   37.2361    0.0000 </r>
       <r>   43.2318    0.0000 </r>
       <r>   46.8534    0.0000 </r>
       <r>   49.6904    0.0000 </r>
      </set>
      <set comment="kpoint 77">
       <r>    8.5843    1.0000 </r>
       <r>    9.4435    1.0000 </r>
       <r>   14.3483    1.0000 </r>
       <r>   16.5217    1.0000 </r>
       <r>   19.6062    0.2087 </r>
       <r>   20.6366    0.0000 </r>
       <r>   32.3432    0.0000 </r>
       <r>   36.3687    0.0000 </r>
       <r>   37.2360    0.0000 </r>
       <r>   43.2318    0.0000 </r>
       <r>   46.8532    0.0000 </r>
       <r>   49.6905    0.0000 </r>
      </set>
      <set comment="kpoint 78">
       <r>    8.5844    1.0000 </r>
       <r>    9.4435    1.0000 </r>
       <r>   14.3483    1.0000 </r>
       <r>   16.5217    1.0000 </r>
       <r>   19.6061    0.2096 </r>
       <r>   20.6366    0.0000 </r>
       <r>   32.3430    0.0000 </r>
       <r>   36.3688    0.0000 </r>
       <r>   37.2361    0.0000 </r>
       <r>   43.2318    0.0000 </r>
       <r>   46.8533    0.0000 </r>
       <r>   49.6907    0.0000 </r>
      </set>
      <set comment="kpoint 79">
       <r>    8.5844    1.0000 </r>
       <r>    9.4435    1.0000 </r>
       <r>   14.3483    1.0000 </r>
       <r>   16.5216    1.0000 </r>
       <r>   19.6061    0.2092 </r>
       <r>   20.6366    0.0000 </r>
       <r>   32.3432    0.0000 </r>
       <r>   36.3685    0.0000 </r>
       <r>   37.2361    0.0000 </r>
       <r>   43.2318    0.0000 </r>
       <r>   46.8534    0.0000 </r>
       <r>   49.6904    0.0000 </r>
      </set>
      <set comment="kpoint 80">
       <r>    8.5843    1.0000 </r>
       <r>    9.4435    1.0000 </r>
       <r>   14.3483    1.0000 </r>
       <r>   16.5217    1.0000 </r>
       <r>   19.6062    0.2087 </r>
       <r>   20.6366    0.0000 </r>
       <r>   32.3432    0.0000 </r>
       <r>   36.3687    0.0000 </r>
       <r>   37.2360    0.0000 </r>
       <r>   43.2318    0.0000 </r>
       <r>   46.8532    0.0000 </r>
       <r>   49.6905    0.0000 </r>
      </set>
      <set comment="kpoint 81">
       <r>    8.5844    1.0000 </r>
       <r>    9.4435    1.0000 </r>
       <r>   14.3483    1.0000 </r>
       <r>   16.5217    1.0000 </r>
       <r>   19.6061    0.2096 </r>
       <r>   20.6366    0.0000 </r>
       <r>   32.3430    0.0000 </r>
       <r>   36.3687    0.0000 </r>
       <r>   37.2361    0.0000 </r>
       <r>   43.2318    0.0000 </r>
       <r>   46.8533    0.0000 </r>
       <r>   49.6907    0.0000 </r>
      </set>
      <set comment="kpoint 82">
       <r>    8.5844    1.0000 </r>
       <r>    9.4435    1.0000 </r>
       <r>   14.3483    1.0000 </r>
       <r>   16.5216    1.0000 </r>
       <r>   19.6061    0.2092 </r>
       <r>   20.6366    0.0000 </r>
       <r>   32.3432    0.0000 </r>
       <r>   36.3685    0.0000 </r>
       <r>   37.2361    0.0000 </r>
       <r>   43.2318    0.0000 </r>
       <r>   46.8534    0.0000 </r>
       <r>   49.6904    0.0000 </r>
      </set>
      <set comment="kpoint 83">
       <r>    8.5843    1.0000 </r>
       <r>    9.4435    1.0000 </r>
       <r>   14.3483    1.0000 </r>
       <r>   16.5217    1.0000 </r>
       <r>   19.6062    0.2087 </r>
       <r>   20.6366    0.0000 </r>
       <r>   32.3432    0.0000 </r>
       <r>   36.3687    0.0000 </r>
       <r>   37.2360    0.0000 </r>
       <r>   43.2318    0.0000 </r>
       <r>   46.8532    0.0000 </r>
       <r>   49.6906    0.0000 </r>
      </set>
      <set comment="kpoint 84">
       <r>    8.5844    1.0000 </r>
       <r>    9.4435    1.0000 </r>
       <r>   14.3483    1.0000 </r>
       <r>   16.5217    1.0000 </r>
       <r>   19.6061    0.2096 </r>
       <r>   20.6366    0.0000 </r>
       <r>   32.3430    0.0000 </r>
       <r>   36.3688    0.0000 </r>
       <r>   37.2361    0.0000 </r>
       <r>   43.2318    0.0000 </r>
       <r>   46.8533    0.0000 </r>
       <r>   49.6906    0.0000 </r>
      </set>
      <set comment="kpoint 85">
       <r>    8.5844    1.0000 </r>
       <r>    9.4435    1.0000 </r>
       <r>   14.3483    1.0000 </r>
       <r>   16.5216    1.0000 </r>
       <r>   19.6061    0.2092 </r>
       <r>   20.6366    0.0000 </r>
       <r>   32.3432    0.0000 </r>
       <r>   36.3685    0.0000 </r>
       <r>   37.2361    0.0000 </r>
       <r>   43.2318    0.0000 </r>
       <r>   46.8534    0.0000 </r>
       <r>   49.6904    0.0000 </r>
      </set>
      <set comment="kpoint 86">
       <r>    8.9923    1.0000 </r>
       <r>   10.6671    1.0000 </r>
       <r>   13.5902    1.0000 </r>
       <r>   15.7640    1.0000 </r>
       <r>   19.1877    1.0000 </r>
       <r>   26.0121    0.0000 </r>
       <r>   27.3754    0.0000 </r>
       <r>   34.9504    0.0000 </r>
       <r>   38.0972    0.0000 </r>
       <r>   40.8691    0.0000 </r>
       <r>   49.6796    0.0000 </r>
       <r>   50.3072    0.0000 </r>
      </set>
      <set comment="kpoint 87">
       <r>    8.9923    1.0000 </r>
       <r>   10.6671    1.0000 </r>
       <r>   13.5902    1.0000 </r>
       <r>   15.7639    1.0000 </r>
       <r>   19.1877    1.0000 </r>
       <r>   26.0121    0.0000 </r>
       <r>   27.3754    0.0000 </r>
       <r>   34.9504    0.0000 </r>
       <r>   38.0972    0.0000 </r>
       <r>   40.8691    0.0000 </r>
       <r>   49.6796    0.0000 </r>
       <r>   50.3066    0.0000 </r>
      </set>
      <set comment="kpoint 88">
       <r>    8.9923    1.0000 </r>
       <r>   10.6671    1.0000 </r>
       <r>   13.5902    1.0000 </r>
       <r>   15.7640    1.0000 </r>
       <r>   19.1877    1.0000 </r>
       <r>   26.0121    0.0000 </r>
       <r>   27.3754    0.0000 </r>
       <r>   34.9504    0.0000 </r>
       <r>   38.0972    0.0000 </r>
       <r>   40.8691    0.0000 </r>
       <r>   49.6796    0.0000 </r>
       <r>   50.3070    0.0000 </r>
      </set>
      <set comment="kpoint 89">
       <r>    8.9922    1.0000 </r>
       <r>   10.6670    1.0000 </r>
       <r>   13.5903    1.0000 </r>
       <r>   15.7640    1.0000 </r>
       <r>   19.1877    1.0000 </r>
       <r>   26.0119    0.0000 </r>
       <r>   27.3755    0.0000 </r>
       <r>   34.9503    0.0000 </r>
       <r>   38.0973    0.0000 </r>
       <r>   40.8691    0.0000 </r>
       <r>   49.6797    0.0000 </r>
       <r>   50.3067    0.0000 </r>
      </set>
[...]
       </set>
       <set comment="band 5">
        <r>  0.0000  0.0065  0.0000  0.0130  0.0259  0.2425  0.0000  0.4850  0.2070 </r>
       </set>
       <set comment="band 6">
        <r>  0.4164  0.1576  0.0472  0.0788  0.0370  0.0523  0.1045  0.0262  0.0046 </r>
       </set>
       <set comment="band 7">
        <r>  0.0000  0.2629  0.0000  0.5257  0.0448  0.0101  0.0000  0.0202  0.3585 </r>
       </set>
       <set comment="band 8">
        <r>  0.2048  0.2376  0.0664  0.1188  0.3812  0.0179  0.0043  0.0090  0.0477 </r>
       </set>
       <set comment="band 9">
        <r>  0.0021  0.0009  0.3945  0.0005  0.1310  0.1781  0.2550  0.0891  0.0164 </r>
       </set>
       <set comment="band 10">
        <r>  0.0002  0.0395  0.0702  0.0197  0.0801  0.0189  0.4536  0.0094  0.0100 </r>
       </set>
       <set comment="band 11">
        <r>  0.0000  0.0019  0.0000  0.0037  0.0222  0.1007  0.0000  0.2014  0.1776 </r>
       </set>
       <set comment="band 12">
        <r>  0.0157  2.7503  3.6831  1.0347  0.0313  0.0009  0.0259  0.0006  0.0037 </r>
       </set>
      </set>
      <set comment="kpoint 162">
       <set comment="band 1">
        <r>  0.0253  0.0192  0.0012  0.0657  0.0048  0.2924  0.0102  0.5412  0.1092 </r>
       </set>
       <set comment="band 2">
        <r>  0.0218  0.1433  0.0837  0.0012  0.0357  0.4123  0.0001  0.0891  0.3422 </r>
       </set>
       <set comment="band 3">
        <r>  0.0000  0.0948  0.1422  0.0474  0.0143  0.1316  0.0272  0.2632  0.3895 </r>
       </set>
       <set comment="band 4">
        <r>  0.0626  0.0011  0.0102  0.0161  0.5919  0.0107  0.2079  0.0270  0.0373 </r>
       </set>
       <set comment="band 5">
        <r>  0.0000  0.0065  0.0097  0.0032  0.2570  0.0114  0.6689  0.0229  0.0003 </r>
       </set>
       <set comment="band 6">
        <r>  0.4164  0.1576  0.1237  0.0023  0.0104  0.0789  0.0138  0.0175  0.1040 </r>
       </set>
       <set comment="band 7">
        <r>  0.0000  0.2629  0.3943  0.1314  0.0004  0.0546  0.0797  0.1091  0.1899 </r>
       </set>
       <set comment="band 8">
        <r>  0.2048  0.2376  0.1826  0.0026  0.1803  0.2188  0.0488  0.0093  0.0028 </r>
       </set>
       <set comment="band 9">
        <r>  0.0021  0.0009  0.0872  0.3078  0.0341  0.2750  0.0060  0.3403  0.0141 </r>
       </set>
       <set comment="band 10">
        <r>  0.0002  0.0395  0.0001  0.0898  0.0005  0.0985  0.0085  0.1707  0.2938 </r>
       </set>
       <set comment="band 11">
        <r>  0.0000  0.0019  0.0028  0.0009  0.0401  0.0828  0.0039  0.1655  0.2095 </r>
       </set>
       <set comment="band 12">
        <r>  0.0131  2.4799  0.0321  4.9678  0.0037  0.0286  0.0000  0.0072  0.0237 </r>
       </set>
      </set>
      <set comment="kpoint 163">
       <set comment="band 1">
        <r>  0.0253  0.0382  0.0419  0.0061  0.3919  0.4400  0.1053  0.0134  0.0072 </r>
       </set>
       <set comment="band 2">
        <r>  0.0218  0.0088  0.0304  0.1890  0.0027  0.0506  0.0247  0.3522  0.4491 </r>
       </set>
       <set comment="band 3">
        <r>  0.0000  0.0948  0.1422  0.0474  0.2150  0.0060  0.5921  0.0121  0.0004 </r>
       </set>
       <set comment="band 4">
        <r>  0.0626  0.0172  0.0035  0.0068  0.2744  0.2794  0.0934  0.2162  0.0113 </r>
       </set>
       <set comment="band 5">
        <r>  0.0000  0.0065  0.0097  0.0032  0.0098  0.1486  0.0514  0.2973  0.4532 </r>
       </set>
       <set comment="band 6">
        <r>  0.4164  0.0315  0.0181  0.2341  0.0130  0.0674  0.0156  0.0216  0.1068 </r>
       </set>
       <set comment="band 7">
        <r>  0.0000  0.2629  0.3943  0.1314  0.1201  0.0177  0.2455  0.0354  0.0149 </r>
       </set>
       <set comment="band 8">
        <r>  0.2048  0.0442  0.0288  0.3497  0.0042  0.1449  0.0062  0.2536  0.0511 </r>
       </set>
       <set comment="band 9">
        <r>  0.0021  0.2630  0.1108  0.0221  0.4384  0.0917  0.1369  0.0000  0.0025 </r>
       </set>
       <set comment="band 10">
        <r>  0.0002  0.0468  0.0646  0.0180  0.0073  0.1784  0.0029  0.1132  0.2703 </r>
       </set>
       <set comment="band 11">
        <r>  0.0000  0.0019  0.0028  0.0009  0.0993  0.0009  0.3724  0.0018  0.0275 </r>
       </set>
       <set comment="band 12">
        <r>  0.0134  2.2419  4.1957  1.0345  0.0000  0.0027  0.0013  0.0263  0.0322 </r>
       </set>
      </set>
      <set comment="kpoint 164">
       <set comment="band 1">
        <r>  0.0253  0.0382  0.0289  0.0191  0.7877  0.0443  0.0052  0.0222  0.0985 </r>
       </set>
       <set comment="band 2">
        <r>  0.0218  0.0088  0.2149  0.0044  0.0285  0.0248  0.8101  0.0124  0.0036 </r>
       </set>
       <set comment="band 3">
        <r>  0.0000  0.0948  0.0000  0.1896  0.0271  0.1940  0.0000  0.3880  0.2166 </r>
       </set>
       <set comment="band 4">
        <r>  0.0626  0.0172  0.0017  0.0086  0.0384  0.5154  0.0583  0.2577  0.0048 </r>
       </set>
       <set comment="band 5">
        <r>  0.0000  0.0065  0.0000  0.0130  0.0808  0.0776  0.0000  0.1553  0.6467 </r>
       </set>
       <set comment="band 6">
        <r>  0.4164  0.0315  0.2364  0.0157  0.0282  0.0523  0.1144  0.0262  0.0035 </r>
       </set>
       <set comment="band 7">
        <r>  0.0000  0.2629  0.0000  0.5257  0.0034  0.1344  0.0000  0.2689  0.0269 </r>
       </set>
       <set comment="band 8">
        <r>  0.2048  0.0442  0.3564  0.0221  0.1312  0.0179  0.2855  0.0090  0.0164 </r>
       </set>
       <set comment="band 9">
        <r>  0.0021  0.2630  0.0014  0.1315  0.3520  0.1781  0.0064  0.0891  0.0440 </r>
       </set>
       <set comment="band 10">
        <r>  0.0002  0.0468  0.0592  0.0234  0.1668  0.0189  0.3561  0.0094  0.0208 </r>
       </set>
       <set comment="band 11">
        <r>  0.0000  0.0019  0.0000  0.0037  0.0336  0.0666  0.0000  0.1332  0.2685 </r>
       </set>
       <set comment="band 12">
        <r>  0.0134  2.4668  3.6548  1.3426  0.0019  0.0010  0.0594  0.0005  0.0003 </r>
       </set>
      </set>
      <set comment="kpoint 165">
       <set comment="band 1">
        <r>  0.0253  0.0192  0.0012  0.0657  0.0048  0.2924  0.0102  0.5412  0.1092 </r>
       </set>
       <set comment="band 2">
        <r>  0.0218  0.1433  0.0837  0.0012  0.0357  0.4123  0.0001  0.0891  0.3422 </r>
       </set>
       <set comment="band 3">
        <r>  0.0000  0.0948  0.1422  0.0474  0.0143  0.1316  0.0272  0.2632  0.3895 </r>
       </set>
       <set comment="band 4">
        <r>  0.0626  0.0011  0.0102  0.0161  0.5918  0.0107  0.2079  0.0270  0.0373 </r>
       </set>
       <set comment="band 5">
        <r>  0.0000  0.0065  0.0097  0.0032  0.2570  0.0114  0.6689  0.0229  0.0003 </r>
       </set>
       <set comment="band 6">
        <r>  0.4164  0.1576  0.1237  0.0023  0.0104  0.0789  0.0138  0.0175  0.1040 </r>
       </set>
       <set comment="band 7">
        <r>  0.0000  0.2628  0.3943  0.1314  0.0004  0.0545  0.0797  0.1091  0.1899 </r>
       </set>
       <set comment="band 8">
        <r>  0.2048  0.2376  0.1826  0.0026  0.1803  0.2188  0.0488  0.0093  0.0028 </r>
       </set>
       <set comment="band 9">
        <r>  0.0021  0.0009  0.0872  0.3078  0.0341  0.2750  0.0060  0.3403  0.0141 </r>
       </set>
       <set comment="band 10">
        <r>  0.0002  0.0395  0.0001  0.0898  0.0005  0.0985  0.0085  0.1708  0.2938 </r>
       </set>
       <set comment="band 11">
        <r>  0.0000  0.0019  0.0028  0.0009  0.0401  0.0828  0.0039  0.1655  0.2095 </r>
       </set>
       <set comment="band 12">
        <r>  0.0177  2.3351  0.1505  5.0108  0.0036  0.0273  0.0001  0.0066  0.0229 </r>
       </set>
      </set>
      <set comment="kpoint 166">
       <set comment="band 1">
        <r>  0.0253  0.0192  0.0419  0.0251  0.1881  0.1091  0.1053  0.3444  0.2110 </r>
       </set>
       <set comment="band 2">
        <r>  0.0218  0.1433  0.0304  0.0545  0.2131  0.2348  0.0247  0.1681  0.2387 </r>
       </set>
       <set comment="band 3">
        <r>  0.0000  0.0948  0.1422  0.0474  0.1399  0.0060  0.5921  0.0121  0.0756 </r>
       </set>
       <set comment="band 4">
        <r>  0.0626  0.0011  0.0035  0.0228  0.2249  0.3777  0.0934  0.1179  0.0608 </r>
       </set>
       <set comment="band 5">
        <r>  0.0000  0.0065  0.0097  0.0032  0.1197  0.1486  0.0514  0.2973  0.3433 </r>
       </set>
       <set comment="band 6">
        <r>  0.4164  0.1576  0.0181  0.1080  0.0866  0.0027  0.0156  0.0864  0.0333 </r>
       </set>
       <set comment="band 7">
        <r>  0.0000  0.2629  0.3943  0.1314  0.0372  0.0177  0.2455  0.0354  0.0978 </r>
       </set>
       <set comment="band 8">
        <r>  0.2048  0.2376  0.0288  0.1564  0.0372  0.3619  0.0062  0.0365  0.0182 </r>
       </set>
       <set comment="band 9">
        <r>  0.0021  0.0009  0.1108  0.2842  0.2986  0.0105  0.1369  0.0812  0.1423 </r>
       </set>
       <set comment="band 10">
        <r>  0.0002  0.0395  0.0646  0.0254  0.0679  0.0311  0.0029  0.2604  0.2097 </r>
       </set>
       <set comment="band 11">
        <r>  0.0000  0.0019  0.0028  0.0009  0.1220  0.0009  0.3724  0.0018  0.0048 </r>
       </set>
       <set comment="band 12">
        <r>  0.0130  2.5319  3.9112  1.0277  0.0135  0.0191  0.0013  0.0110  0.0187 </r>
       </set>
      </set>
      <set comment="kpoint 167">
       <set comment="band 1">
        <r>  0.0253  0.0382  0.0012  0.0467  0.0684  0.7636  0.0102  0.0700  0.0456 </r>
       </set>
       <set comment="band 2">
        <r>  0.0218  0.0088  0.0837  0.1357  0.0488  0.0045  0.0001  0.4969  0.3291 </r>
       </set>
       <set comment="band 3">
        <r>  0.0000  0.0948  0.1422  0.0474  0.0895  0.1316  0.0272  0.2632  0.3143 </r>
       </set>
       <set comment="band 4">
        <r>  0.0626  0.0172  0.0102  0.0001  0.5180  0.0358  0.2079  0.0018  0.1111 </r>
       </set>
       <set comment="band 5">
        <r>  0.0000  0.0065  0.0097  0.0032  0.1470  0.0114  0.6689  0.0229  0.1102 </r>
       </set>
       <set comment="band 6">
        <r>  0.4164  0.0315  0.1237  0.1284  0.0795  0.0010  0.0138  0.0954  0.0349 </r>
       </set>
       <set comment="band 7">
        <r>  0.0000  0.2629  0.3943  0.1314  0.0833  0.0546  0.0797  0.1091  0.1070 </r>
       </set>
       <set comment="band 8">
        <r>  0.2048  0.0442  0.1826  0.1960  0.0882  0.0609  0.0488  0.1672  0.0949 </r>
       </set>
       <set comment="band 9">
        <r>  0.0021  0.2630  0.0872  0.0457  0.0047  0.5253  0.0060  0.0900  0.0434 </r>
       </set>
       <set comment="band 10">
        <r>  0.0002  0.0468  0.0001  0.0825  0.1044  0.0812  0.0085  0.1880  0.1899 </r>
       </set>
       <set comment="band 11">
        <r>  0.0000  0.0019  0.0028  0.0009  0.0174  0.0828  0.0039  0.1655  0.2322 </r>
       </set>
       <set comment="band 12">
        <r>  0.0137  2.6049  0.0517  4.8152  0.0025  0.0006  0.0001  0.0357  0.0247 </r>
       </set>
      </set>
      <set comment="kpoint 168">
       <set comment="band 1">
        <r>  0.0253  0.0192  0.0419  0.0251  0.1881  0.1091  0.1053  0.3444  0.2110 </r>
       </set>
       <set comment="band 2">
        <r>  0.0218  0.1433  0.0304  0.0545  0.2131  0.2348  0.0247  0.1680  0.2387 </r>
       </set>
       <set comment="band 3">
        <r>  0.0000  0.0948  0.1422  0.0474  0.1399  0.0060  0.5921  0.0121  0.0756 </r>
       </set>
       <set comment="band 4">
        <r>  0.0626  0.0011  0.0035  0.0228  0.2249  0.3777  0.0934  0.1179  0.0608 </r>
       </set>
       <set comment="band 5">
        <r>  0.0000  0.0065  0.0097  0.0032  0.1197  0.1486  0.0514  0.2973  0.3433 </r>
       </set>
       <set comment="band 6">
        <r>  0.4164  0.1576  0.0181  0.1080  0.0866  0.0027  0.0156  0.0864  0.0333 </r>
       </set>
       <set comment="band 7">
        <r>  0.0000  0.2628  0.3943  0.1314  0.0372  0.0177  0.2455  0.0354  0.0978 </r>
       </set>
       <set comment="band 8">
        <r>  0.2048  0.2376  0.0288  0.1564  0.0372  0.3619  0.0062  0.0365  0.0182 </r>
       </set>
       <set comment="band 9">
        <r>  0.0021  0.0009  0.1108  0.2842  0.2986  0.0105  0.1369  0.0812  0.1423 </r>
       </set>
       <set comment="band 10">
        <r>  0.0002  0.0395  0.0646  0.0254  0.0679  0.0311  0.0029  0.2604  0.2097 </r>
       </set>
       <set comment="band 11">
        <r>  0.0000  0.0019  0.0028  0.0009  0.1220  0.0009  0.3724  0.0018  0.0048 </r>
       </set>
       <set comment="band 12">
        <r>  0.0126  2.5517  3.6032  1.3165  0.0133  0.0190  0.0014  0.0114  0.0181 </r>
       </set>
      </set>
      <set comment="kpoint 169">
       <set comment="band 1">
        <r>  0.0253  0.0382  0.0012  0.0467  0.0684  0.7636  0.0102  0.0700  0.0456 </r>
       </set>
       <set comment="band 2">
        <r>  0.0218  0.0088  0.0837  0.1357  0.0488  0.0046  0.0001  0.4969  0.3291 </r>
       </set>
       <set comment="band 3">
        <r>  0.0000  0.0948  0.1422  0.0474  0.0895  0.1316  0.0272  0.2632  0.3143 </r>
       </set>
       <set comment="band 4">
        <r>  0.0626  0.0172  0.0102  0.0001  0.5180  0.0358  0.2079  0.0018  0.1111 </r>
       </set>
       <set comment="band 5">
        <r>  0.0000  0.0065  0.0097  0.0032  0.1470  0.0114  0.6689  0.0229  0.1102 </r>
       </set>
       <set comment="band 6">
        <r>  0.4164  0.0315  0.1237  0.1284  0.0795  0.0010  0.0138  0.0954  0.0349 </r>
       </set>
       <set comment="band 7">
        <r>  0.0000  0.2629  0.3943  0.1314  0.0833  0.0546  0.0797  0.1091  0.1070 </r>
       </set>
       <set comment="band 8">
        <r>  0.2048  0.0442  0.1826  0.1959  0.0882  0.0609  0.0488  0.1672  0.0949 </r>
       </set>
       <set comment="band 9">
        <r>  0.0021  0.2630  0.0872  0.0458  0.0047  0.5253  0.0060  0.0900  0.0434 </r>
       </set>
       <set comment="band 10">
        <r>  0.0002  0.0468  0.0001  0.0825  0.1044  0.0812  0.0085  0.1880  0.1899 </r>
       </set>
       <set comment="band 11">
        <r>  0.0000  0.0019  0.0028  0.0009  0.0174  0.0828  0.0039  0.1655  0.2322 </r>
       </set>
       <set comment="band 12">
        <r>  0.0138  3.3714  0.1021  4.0298  0.0027  0.0006  0.0001  0.0348  0.0232 </r>
       </set>
      </set>
      <set comment="kpoint 170">
       <set comment="band 1">
        <r>  0.0253  0.0382  0.0419  0.0061  0.3919  0.4400  0.1053  0.0134  0.0072 </r>
       </set>
       <set comment="band 2">
        <r>  0.0218  0.0088  0.0304  0.1889  0.0027  0.0506  0.0247  0.3522  0.4491 </r>
       </set>
       <set comment="band 3">
        <r>  0.0000  0.0948  0.1422  0.0474  0.2150  0.0060  0.5921  0.0121  0.0004 </r>
       </set>
       <set comment="band 4">
        <r>  0.0626  0.0172  0.0035  0.0068  0.2744  0.2795  0.0934  0.2162  0.0113 </r>
       </set>
       <set comment="band 5">
        <r>  0.0000  0.0065  0.0097  0.0032  0.0098  0.1486  0.0514  0.2973  0.4532 </r>
       </set>
       <set comment="band 6">
        <r>  0.4164  0.0315  0.0181  0.2341  0.0130  0.0674  0.0156  0.0216  0.1068 </r>
       </set>
       <set comment="band 7">
        <r>  0.0000  0.2629  0.3943  0.1314  0.1201  0.0177  0.2455  0.0354  0.0149 </r>
       </set>
       <set comment="band 8">
        <r>  0.2048  0.0442  0.0288  0.3497  0.0042  0.1449  0.0062  0.2536  0.0511 </r>
       </set>
       <set comment="band 9">
        <r>  0.0021  0.2630  0.1108  0.0221  0.4384  0.0917  0.1369  0.0000  0.0025 </r>
       </set>
       <set comment="band 10">
        <r>  0.0002  0.0468  0.0646  0.0180  0.0073  0.1784  0.0029  0.1132  0.2703 </r>
       </set>
       <set comment="band 11">
        <r>  0.0000  0.0019  0.0028  0.0009  0.0993  0.0009  0.3724  0.0018  0.0275 </r>
       </set>
       <set comment="band 12">
        <r>  0.0186  3.7407  3.4782  0.3163  0.0002  0.0027  0.0015  0.0224  0.0277 </r>
       </set>
      </set>
      <set comment="kpoint 171">
       <set comment="band 1">
        <r>  0.0253  0.0382  0.0288  0.0191  0.7877  0.0443  0.0052  0.0222  0.0985 </r>
       </set>
       <set comment="band 2">
        <r>  0.0218  0.0088  0.2149  0.0044  0.0285  0.0248  0.8101  0.0124  0.0036 </r>
       </set>
       <set comment="band 3">
        <r>  0.0000  0.0948  0.0000  0.1896  0.0271  0.1940  0.0000  0.3880  0.2166 </r>
       </set>
       <set comment="band 4">
        <r>  0.0626  0.0172  0.0017  0.0086  0.0384  0.5154  0.0583  0.2577  0.0048 </r>
       </set>
       <set comment="band 5">
        <r>  0.0000  0.0065  0.0000  0.0130  0.0808  0.0776  0.0000  0.1553  0.6467 </r>
       </set>
       <set comment="band 6">
        <r>  0.4164  0.0315  0.2364  0.0157  0.0282  0.0523  0.1144  0.0262  0.0035 </r>
       </set>
       <set comment="band 7">
        <r>  0.0000  0.2629  0.0000  0.5257  0.0034  0.1344  0.0000  0.2689  0.0269 </r>
       </set>
       <set comment="band 8">
        <r>  0.2048  0.0442  0.3564  0.0221  0.1312  0.0179  0.2855  0.0090  0.0164 </r>
       </set>
       <set comment="band 9">
        <r>  0.0021  0.2630  0.0014  0.1315  0.3520  0.1781  0.0064  0.0891  0.0440 </r>
       </set>
       <set comment="band 10">
        <r>  0.0002  0.0468  0.0592  0.0234  0.1668  0.0189  0.3561  0.0094  0.0209 </r>
       </set>
       <set comment="band 11">
        <r>  0.0000  0.0019  0.0000  0.0037  0.0336  0.0666  0.0000  0.1332  0.2685 </r>
       </set>
       <set comment="band 12">
        <r>  0.0157  2.1906  3.5003  1.7600  0.0016  0.0008  0.0594  0.0005  0.0004 </r>
       </set>
      </set>
      <set comment="kpoint 172">
       <set comment="band 1">
        <r>  0.0253  0.0192  0.0573  0.0096  0.2529  0.0443  0.6069  0.0222  0.0316 </r>
       </set>
       <set comment="band 2">
        <r>  0.0218  0.1433  0.0132  0.0717  0.4231  0.0248  0.3662  0.0124  0.0529 </r>
       </set>
       <set comment="band 3">
        <r>  0.0000  0.0948  0.0000  0.1896  0.0647  0.0812  0.0000  0.1625  0.5173 </r>
       </set>
       <set comment="band 4">
        <r>  0.0626  0.0011  0.0257  0.0006  0.0871  0.5154  0.0035  0.2577  0.0109 </r>
       </set>
       <set comment="band 5">
        <r>  0.0000  0.0065  0.0000  0.0130  0.0259  0.2425  0.0000  0.4850  0.2070 </r>
       </set>
       <set comment="band 6">
        <r>  0.4164  0.1576  0.0472  0.0788  0.0370  0.0523  0.1045  0.0262  0.0046 </r>
       </set>
       <set comment="band 7">
        <r>  0.0000  0.2629  0.0000  0.5257  0.0448  0.0101  0.0000  0.0202  0.3585 </r>
       </set>
       <set comment="band 8">
        <r>  0.2048  0.2376  0.0664  0.1188  0.3812  0.0179  0.0043  0.0090  0.0476 </r>
       </set>
       <set comment="band 9">
        <r>  0.0021  0.0009  0.3945  0.0005  0.1310  0.1781  0.2550  0.0891  0.0164 </r>
       </set>
       <set comment="band 10">
        <r>  0.0002  0.0395  0.0702  0.0197  0.0801  0.0189  0.4536  0.0094  0.0100 </r>
       </set>
       <set comment="band 11">
        <r>  0.0000  0.0019  0.0000  0.0037  0.0222  0.1007  0.0000  0.2014  0.1776 </r>
       </set>
       <set comment="band 12">
        <r>  0.0152  1.7693  4.4668  1.2195  0.0306  0.0012  0.0254  0.0004  0.0039 </r>
       </set>
      </set>
     </set>
    </set>
   </array>
  </projected>
 </calculation>
 <structure name="finalpos" >
  <crystal>
   <varray name="basis" >
    <v>       2.14267800       0.00000400       1.23708800 </v>
    <v>       0.71423100       2.02013400       1.23708800 </v>
    <v>       0.00000600       0.00000400       2.47415700 </v>
   </varray>
   <i name="volume">     10.70935123 </i>
   <varray name="rec_basis" >
    <v>       0.46670649      -0.16500647      -0.00000087 </v>
    <v>      -0.00000046       0.49501732      -0.00000080 </v>
    <v>      -0.23335481      -0.16500669       0.40417890 </v>
   </varray>
  </crystal>
  <varray name="positions" >
   <v>       0.00000000       0.00000000       0.00000000 </v>
  </varray>
 </structure>
</modeling>
