 vasp.6.2.0 18Jan21 (build Feb  1 2022 01:28:57) complex                         
 executed on             LinuxPGI date 2022.05.18  19:39:31
 running on   16 total cores
 distrk:  each k-point on   16 cores,    1 groups
 distr:  one band on NCORE=   4 cores,    4 groups


--------------------------------------------------------------------------------------------------------


 INCAR:
   ALGO = 38
   EDIFF = 0.0001
   EDIFFG = -0.03
   ENCUT = 420
   GGA = RP
   IBRION = 2
   ISIF = 0
   ISMEAR = 0
   ISPIN = 1
   ISYM = 0
   LASPH = False
   LORBIT = 11
   LREAL = False
   LVTOT = False
   LWAVE = False
   NCORE = 4
   NELM = 60
   NELMIN = 4
   NSW = 0
   PREC = Normal
   SIGMA = 0.05
   SYMPREC = 1e-05

 POTCAR:    PAW_PBE Pt 04Feb2005                  
 POTCAR:    PAW_PBE Pt 04Feb2005                  
   SHA256 =  3ed90460adef76debcff1cfb73ee1349b515b1a3db03439735b44de3a8db7dc8 Pt/POTCAR             
   COPYR  = (c) Copyright 04Feb2005 Georg Kresse                                                    
   COPYR  = This file is part of the software VASP. Any use, copying, and all other rights are regul
   COPYR  = If you do not have a valid VASP license, you may not use, copy or distribute this file. 
   VRHFIN =Pt: s1d9                                                                                 
   LEXCH  = PE                                                                                      
   EATOM  =   729.1176 eV,   53.5886 Ry                                                             
                                                                                                    
   TITEL  = PAW_PBE Pt 04Feb2005                                                                    
   LULTRA =        F    use ultrasoft PP ?                                                          
   IUNSCR =        1    unscreen: 0-lin 1-nonlin 2-no                                               
   RPACOR =    2.330    partial core radius                                                         
   POMASS =  195.080; ZVAL   =   10.000    mass and valenz                                          
   RCORE  =    2.600    outmost cutoff radius                                                       
   RWIGS  =    2.750; RWIGS  =    1.455    wigner-seitz radius (au A)                               
   ENMAX  =  230.283; ENMIN  =  172.712 eV                                                          
   ICORE  =        3    local potential                                                             
   LCOR   =        T    correct aug charges                                                         
   LPAW   =        T    paw PP                                                                      
   EAUG   =  358.966                                                                                
   DEXC   =    0.000                                                                                
   RMAX   =    2.658    core radius for proj-oper                                                   
   RAUG   =    1.300    factor for augmentation sphere                                              
   RDEP   =    2.761    radius for radial grids                                                     
   RDEPT  =    2.203    core radius for aug-charge                                                  
                                                                                                    
   Atomic configuration                                                                             
   16 entries                                                                                       
     n  l   j            E        occ.                                                              
     1  0  0.50    -78401.1885   2.0000                                                             
     2  0  0.50    -13770.7750   2.0000                                                             
     2  1  1.50    -11931.0468   6.0000                                                             
     3  0  0.50     -3234.7234   2.0000                                                             
     3  1  1.50     -2699.2216   6.0000                                                             
     3  2  2.50     -2119.5714  10.0000                                                             
     4  0  0.50      -695.1528   2.0000                                                             
     4  1  1.50      -519.6034   6.0000                                                             
     4  2  2.50      -306.6786  10.0000                                                             
     4  3  3.50       -70.1041  14.0000                                                             
     5  0  0.50      -101.7747   2.0000                                                             
     5  1  1.50       -55.9873   6.0000                                                             
     5  2  2.50        -6.1423   9.0000                                                             
     6  0  0.50        -5.6573   1.0000                                                             
     6  1  1.50        -6.8029   0.0000                                                             
     5  3  2.50        -1.3606   0.0000                                                             
   Description                                                                                      
     l       E           TYP  RCUT    TYP  RCUT                                                     
     2     -6.1423404     23  2.500                                                                 
     2     -7.5029230     23  2.500                                                                 
     0     -5.6573207     23  2.500                                                                 
     0      0.7416693     23  2.500                                                                 
     1     -2.7211652     23  2.600                                                                 
     1     20.4087390     23  2.600                                                                 
     3     -1.3605826     23  2.500                                                                 
  local pseudopotential read in
  partial core-charges read in
  partial kinetic energy density read in
  atomic valenz-charges read in
  non local Contribution for L=            2  read in
    real space projection operators read in
  non local Contribution for L=            2  read in
    real space projection operators read in
  non local Contribution for L=            0  read in
    real space projection operators read in
  non local Contribution for L=            0  read in
    real space projection operators read in
  non local Contribution for L=            1  read in
    real space projection operators read in
  non local Contribution for L=            1  read in
    real space projection operators read in
    PAW grid and wavefunctions read in
 
   number of l-projection  operators is LMAX  =            6
   number of lm-projection operators is LMMAX =           18
 
 -----------------------------------------------------------------------------
|                                                                             |
|               ----> ADVICE to this user running VASP <----                  |
|                                                                             |
|     You enforced a specific xc type in the INCAR file but a different       |
|     type was found in the POTCAR file.                                      |
|     I HOPE YOU KNOW WHAT YOU ARE DOING!                                     |
|                                                                             |
 -----------------------------------------------------------------------------

  PAW_PBE Pt 04Feb2005                  :
 energy of atom  1       EATOM= -729.1176
 kinetic energy error for atom=    0.0052 (will be added to EATOM!!)
 
 
 POSCAR: Pt1
  positions in direct lattice
  velocities in cartesian coordinates
 exchange correlation table for  LEXCH =        9
   RHO(1)=    0.500       N(1)  =     2000
   RHO(2)=  100.500       N(2)  =     4000
 


--------------------------------------------------------------------------------------------------------


 ion  position               nearest neighbor table
   1  0.000  0.000  0.000-
 

IMPORTANT INFORMATION: All symmetrisations will be switched off!
NOSYMM: (Re-)initialisation of all symmetry stuff for point group C_1.


----------------------------------------------------------------------------------------

                                     Primitive cell                                     

  volume of cell :      12.5591

  direct lattice vectors                    reciprocal lattice vectors
     2.259551000  0.000004000  1.304566000     0.442566528 -0.156471683 -0.000000778
     0.753189000  2.130323000  1.304566000    -0.000000415  0.469412972 -0.000000720
     0.000006000  0.000004000  2.609111000    -0.221284837 -0.156471904  0.383273059

  length of vectors
     2.609111567  2.609111382  2.609111000     0.469412952  0.469412972  0.469413116

  position of ions in fractional coordinates (direct lattice)
     0.000000000  0.000000000  0.000000000

  ion indices of the primitive-cell ions
   primitive index   ion index
                 1           1

----------------------------------------------------------------------------------------

 
 -----------------------------------------------------------------------------
|                                                                             |
|           W    W    AA    RRRRR   N    N  II  N    N   GGGG   !!!           |
|           W    W   A  A   R    R  NN   N  II  NN   N  G    G  !!!           |
|           W    W  A    A  R    R  N N  N  II  N N  N  G       !!!           |
|           W WW W  AAAAAA  RRRRR   N  N N  II  N  N N  G  GGG   !            |
|           WW  WW  A    A  R   R   N   NN  II  N   NN  G    G                |
|           W    W  A    A  R    R  N    N  II  N    N   GGGG   !!!           |
|                                                                             |
|     The requested file  could not be found or opened for reading            |
|     k-point information. Automatic k-point generation is used as a          |
|     fallback, which may lead to unwanted results.                           |
|                                                                             |
 -----------------------------------------------------------------------------

 

Automatic generation of k-mesh.
 Grid dimensions derived from KSPACING:
 generate k-points for:    6    6    6

 Generating k-lattice:

  Cartesian coordinates                     Fractional coordinates (reciprocal lattice)
     0.073761088 -0.026078614 -0.000000130     0.166666667 -0.000000000  0.000000000
    -0.000000069  0.078235495 -0.000000120     0.000000000  0.166666667  0.000000000
    -0.036880806 -0.026078651  0.063878843    -0.000000000 -0.000000000  0.166666667

  Length of vectors
     0.078235492  0.078235495  0.078235519

  Shift w.r.t. Gamma in fractional coordinates (k-lattice)
     0.000000000  0.000000000  0.000000000

 
 Subroutine IBZKPT returns following result:
 ===========================================
 
 Found    112 irreducible k-points:
 
 Following reciprocal coordinates:
            Coordinates               Weight
  0.000000  0.000000  0.000000      1.000000
  0.166667  0.000000  0.000000      2.000000
  0.000000  0.166667  0.000000      2.000000
  0.000000  0.000000  0.166667      2.000000
  0.166667  0.166667  0.166667      2.000000
  0.333333  0.000000  0.000000      2.000000
  0.000000  0.333333  0.000000      2.000000
  0.000000  0.000000  0.333333      2.000000
  0.333333  0.333333  0.333333      2.000000
  0.500000  0.000000  0.000000      1.000000
  0.000000  0.500000  0.000000      1.000000
  0.000000  0.000000  0.500000      1.000000
  0.500000  0.500000  0.500000      1.000000
  0.166667  0.166667  0.000000      2.000000
  0.000000  0.166667  0.166667      2.000000
  0.166667  0.000000  0.166667      2.000000
  0.333333  0.166667  0.000000      2.000000
  0.000000  0.333333  0.166667      2.000000
  0.166667  0.000000  0.333333      2.000000
  0.166667  0.166667 -0.166667      2.000000
  0.333333  0.166667  0.333333      2.000000
  0.166667  0.333333  0.000000      2.000000
  0.166667 -0.166667 -0.166667      2.000000
  0.333333  0.333333  0.166667      2.000000
  0.000000  0.166667  0.333333      2.000000
 -0.166667  0.166667 -0.166667      2.000000
  0.166667  0.333333  0.333333      2.000000
  0.333333  0.000000  0.166667      2.000000
  0.500000  0.166667  0.000000      2.000000
  0.000000  0.500000  0.166667      2.000000
  0.166667  0.000000  0.500000      2.000000
  0.166667  0.166667 -0.333333      2.000000
  0.500000  0.333333  0.500000      2.000000
  0.166667  0.500000  0.000000      2.000000
  0.333333 -0.166667 -0.166667      2.000000
  0.500000  0.500000  0.333333      2.000000
  0.000000  0.166667  0.500000      2.000000
 -0.166667  0.333333 -0.166667      2.000000
  0.333333  0.500000  0.500000      2.000000
  0.500000  0.000000  0.166667      2.000000
 -0.333333  0.166667  0.000000      2.000000
  0.000000 -0.333333  0.166667      2.000000
  0.166667  0.000000 -0.333333      2.000000
  0.166667  0.166667  0.500000      2.000000
 -0.333333  0.500000 -0.333333      2.000000
  0.166667 -0.333333  0.000000      2.000000
  0.500000 -0.166667 -0.166667      2.000000
 -0.333333 -0.333333  0.500000      2.000000
  0.000000  0.166667 -0.333333      2.000000
 -0.166667  0.500000 -0.166667      2.000000
  0.500000 -0.333333 -0.333333      2.000000
 -0.333333  0.000000  0.166667      2.000000
 -0.166667  0.166667  0.000000      2.000000
  0.000000 -0.166667  0.166667      2.000000
  0.166667  0.000000 -0.166667      2.000000
  0.166667  0.166667  0.333333      2.000000
 -0.166667 -0.333333 -0.166667      2.000000
 -0.333333 -0.166667 -0.166667      2.000000
  0.333333  0.333333  0.000000      2.000000
  0.000000  0.333333  0.333333      2.000000
  0.333333  0.000000  0.333333      2.000000
  0.500000  0.333333  0.000000      2.000000
  0.000000  0.500000  0.333333      2.000000
  0.333333  0.000000  0.500000      2.000000
  0.333333  0.333333 -0.166667      2.000000
  0.500000  0.166667  0.500000      2.000000
  0.333333  0.500000  0.000000      2.000000
  0.166667 -0.333333 -0.333333      2.000000
  0.500000  0.500000  0.166667      2.000000
  0.000000  0.333333  0.500000      2.000000
 -0.333333  0.166667 -0.333333      2.000000
  0.166667  0.500000  0.500000      2.000000
  0.500000  0.000000  0.333333      2.000000
 -0.333333  0.333333  0.000000      2.000000
  0.000000 -0.333333  0.333333      2.000000
  0.333333  0.000000 -0.333333      2.000000
  0.333333  0.333333 -0.333333      2.000000
 -0.333333  0.333333 -0.333333      2.000000
  0.333333 -0.333333 -0.333333      2.000000
  0.500000  0.500000  0.000000      1.000000
  0.000000  0.500000  0.500000      1.000000
  0.500000  0.000000  0.500000      1.000000
  0.500000  0.333333  0.166667      2.000000
  0.166667  0.500000  0.333333      2.000000
  0.333333  0.166667  0.500000      2.000000
  0.333333  0.166667 -0.166667      2.000000
  0.500000  0.166667  0.333333      2.000000
  0.166667 -0.333333 -0.166667      2.000000
  0.166667  0.333333 -0.166667      2.000000
  0.166667 -0.166667 -0.333333      2.000000
  0.333333  0.500000  0.166667      2.000000
 -0.166667  0.166667 -0.333333      2.000000
 -0.333333  0.166667 -0.166667      2.000000
  0.166667  0.333333  0.500000      2.000000
 -0.333333  0.333333  0.166667      2.000000
  0.166667 -0.333333  0.333333      2.000000
  0.333333  0.166667 -0.333333      2.000000
 -0.333333  0.333333  0.500000      2.000000
  0.166667  0.500000 -0.166667      2.000000
  0.333333 -0.166667 -0.333333      2.000000
  0.500000 -0.333333  0.333333      2.000000
 -0.166667  0.166667  0.500000      2.000000
 -0.333333  0.333333 -0.166667      2.000000
  0.333333  0.500000 -0.333333      2.000000
  0.500000 -0.166667  0.166667      2.000000
 -0.166667 -0.333333  0.333333      2.000000
 -0.333333  0.500000  0.166667      2.000000
  0.166667 -0.333333  0.500000      2.000000
  0.500000  0.166667 -0.333333      2.000000
  0.500000  0.333333 -0.166667      2.000000
 -0.333333  0.166667  0.500000      2.000000
  0.166667  0.500000 -0.333333      2.000000
 
 Following cartesian coordinates:
            Coordinates               Weight
  0.000000  0.000000  0.000000      1.000000
  0.073761 -0.026079 -0.000000      2.000000
 -0.000000  0.078235 -0.000000      2.000000
 -0.036881 -0.026079  0.063879      2.000000
  0.036880  0.026078  0.063879      2.000000
  0.147522 -0.052157 -0.000000      2.000000
 -0.000000  0.156471 -0.000000      2.000000
 -0.073762 -0.052157  0.127758      2.000000
  0.073760  0.052156  0.127757      2.000000
  0.221283 -0.078236 -0.000000      1.000000
 -0.000000  0.234706 -0.000000      1.000000
 -0.110642 -0.078236  0.191637      1.000000
  0.110641  0.078235  0.191636      1.000000
  0.073761  0.052157 -0.000000      2.000000
 -0.036881  0.052157  0.063879      2.000000
  0.036880 -0.052157  0.063879      2.000000
  0.147522  0.026078 -0.000000      2.000000
 -0.036881  0.130392  0.063879      2.000000
 -0.000001 -0.078236  0.127758      2.000000
  0.110642  0.078236 -0.063879      2.000000
  0.073760 -0.026079  0.127757      2.000000
  0.073761  0.130392 -0.000000      2.000000
  0.110642 -0.078235 -0.063879      2.000000
  0.110641  0.078235  0.063878      2.000000
 -0.073762  0.026078  0.127758      2.000000
 -0.036880  0.130393 -0.063879      2.000000
 -0.000001  0.078235  0.127757      2.000000
  0.110641 -0.078236  0.063879      2.000000
  0.221283 -0.000000 -0.000001      2.000000
 -0.036881  0.208628  0.063878      2.000000
 -0.036881 -0.104315  0.191636      2.000000
  0.147523  0.104314 -0.127758      2.000000
  0.110641 -0.000001  0.191636      2.000000
  0.073761  0.208628 -0.000000      2.000000
  0.184403 -0.104314 -0.063879      2.000000
  0.147521  0.104313  0.127757      2.000000
 -0.110642 -0.000000  0.191636      2.000000
 -0.036880  0.208628 -0.063879      2.000000
  0.036880  0.104313  0.191636      2.000000
  0.184402 -0.104314  0.063878      2.000000
 -0.147522  0.130393  0.000000      2.000000
 -0.036881 -0.182550  0.063879      2.000000
  0.147523  0.026079 -0.127758      2.000000
 -0.036881 -0.026079  0.191636      2.000000
 -0.073761  0.339021 -0.127758      2.000000
  0.073761 -0.182550  0.000000      2.000000
  0.258164 -0.130393 -0.063879      2.000000
 -0.258164 -0.182550  0.191637      2.000000
  0.073762  0.130393 -0.127758      2.000000
 -0.036880  0.286864 -0.063879      2.000000
  0.295045 -0.182550 -0.127758      2.000000
 -0.184403  0.026079  0.063879      2.000000
 -0.073761  0.104314  0.000000      2.000000
 -0.036881 -0.104314  0.063879      2.000000
  0.110642  0.000000 -0.063879      2.000000
 -0.000001 -0.000000  0.127757      2.000000
 -0.036880 -0.104314 -0.063878      2.000000
 -0.110641  0.000000 -0.063878      2.000000
  0.147522  0.104314 -0.000000      2.000000
 -0.073762  0.104314  0.127757      2.000000
  0.073761 -0.104315  0.127757      2.000000
  0.221283  0.078235 -0.000001      2.000000
 -0.073762  0.182549  0.127757      2.000000
  0.036880 -0.130393  0.191636      2.000000
  0.184403  0.130392 -0.063879      2.000000
  0.110641 -0.078236  0.191636      2.000000
  0.147522  0.182549 -0.000001      2.000000
  0.147523 -0.130392 -0.127758      2.000000
  0.184402  0.130392  0.063878      2.000000
 -0.110643  0.078235  0.191636      2.000000
 -0.073761  0.182550 -0.127758      2.000000
 -0.036882  0.130392  0.191636      2.000000
  0.147522 -0.130393  0.127757      2.000000
 -0.147522  0.208628  0.000000      2.000000
 -0.073761 -0.208628  0.127758      2.000000
  0.221284  0.000000 -0.127758      2.000000
  0.221284  0.156471 -0.127758      2.000000
 -0.073761  0.260786 -0.127758      2.000000
  0.221284 -0.156471 -0.127758      2.000000
  0.221283  0.156471 -0.000001      1.000000
 -0.110643  0.156471  0.191636      1.000000
  0.110641 -0.156472  0.191636      1.000000
  0.184402  0.052156  0.063878      2.000000
 -0.000001  0.156471  0.127757      2.000000
  0.036880 -0.052158  0.191636      2.000000
  0.184403  0.052157 -0.063879      2.000000
  0.147522 -0.052158  0.127757      2.000000
  0.110642 -0.156471 -0.063879      2.000000
  0.110642  0.156471 -0.063879      2.000000
  0.147523 -0.052157 -0.127758      2.000000
  0.110641  0.156471  0.063878      2.000000
  0.000000  0.156471 -0.127758      2.000000
 -0.110641  0.156471 -0.063879      2.000000
 -0.036881  0.052156  0.191636      2.000000
 -0.184403  0.182550  0.063879      2.000000
 -0.000000 -0.234707  0.127758      2.000000
  0.221284  0.078236 -0.127758      2.000000
 -0.258165  0.130392  0.191637      2.000000
  0.110642  0.234707 -0.063879      2.000000
  0.221284 -0.078235 -0.127758      2.000000
  0.147522 -0.286864  0.127758      2.000000
 -0.184404  0.026078  0.191637      2.000000
 -0.110642  0.234707 -0.063879      2.000000
  0.221284  0.234707 -0.127758      2.000000
  0.184403 -0.182550  0.063879      2.000000
 -0.147523 -0.182550  0.127758      2.000000
 -0.184403  0.260785  0.063879      2.000000
 -0.036881 -0.260786  0.191637      2.000000
  0.295045  0.052157 -0.127758      2.000000
  0.258164  0.104314 -0.063879      2.000000
 -0.258165  0.052157  0.191637      2.000000
  0.147522  0.260785 -0.127758      2.000000
 


--------------------------------------------------------------------------------------------------------




 Dimension of arrays:
   k-points           NKPTS =    112   k-points in BZ     NKDIM =    112   number of bands    NBANDS=     12
   number of dos      NEDOS =    301   number of ions     NIONS =      1
   non local maximal  LDIM  =      6   non local SUM 2l+1 LMDIM =     18
   total plane-waves  NPLWV =   2744
   max r-space proj   IRMAX =      1   max aug-charges    IRDMAX=  13431
   dimension x,y,z NGX =    14 NGY =   14 NGZ =   14
   dimension x,y,z NGXF=    28 NGYF=   28 NGZF=   28
   support grid    NGXF=    28 NGYF=   28 NGZF=   28
   ions per type =               1
   NGX,Y,Z   is equivalent  to a cutoff of   8.92,  8.92,  8.92 a.u.
   NGXF,Y,Z  is equivalent  to a cutoff of  17.84, 17.84, 17.84 a.u.

 SYSTEM =  unknown system                          
 POSCAR =  Pt1                                     

 Startparameter for this run:
   NWRITE =      2    write-flag & timer
   PREC   = normal    normal or accurate (medium, high low for compatibility)
   ISTART =      0    job   : 0-new  1-cont  2-samecut
   ICHARG =      2    charge: 1-file 2-atom 10-const
   ISPIN  =      1    spin polarized calculation?
   LNONCOLLINEAR =      F non collinear calculations
   LSORBIT =      F    spin-orbit coupling
   INIWAV =      1    electr: 0-lowe 1-rand  2-diag
   LASPH  =      F    aspherical Exc in radial PAW
   METAGGA=      F    non-selfconsistent MetaGGA calc.

 Electronic Relaxation 1
   ENCUT  =  420.0 eV  30.87 Ry    5.56 a.u.   4.36  4.36  4.36*2*pi/ulx,y,z
   ENINI  =  420.0     initial cutoff
   ENAUG  =  359.0 eV  augmentation charge cutoff
   NELM   =     60;   NELMIN=  4; NELMDL= -5     # of ELM steps 
   EDIFF  = 0.1E-03   stopping-criterion for ELM
   LREAL  =      F    real-space projection
   NLSPLINE    = F    spline interpolate recip. space projectors
   LCOMPAT=      F    compatible to vasp.4.4
   GGA_COMPAT  = T    GGA compatible to vasp.4.4-vasp.4.6
   LMAXPAW     = -100 max onsite density
   LMAXMIX     =    2 max onsite mixed and CHGCAR
   VOSKOWN=      0    Vosko Wilk Nusair interpolation
   ROPT   =    0.00000
 Ionic relaxation
   EDIFFG = -.3E-01   stopping-criterion for IOM
   NSW    =      0    number of steps for IOM
   NBLOCK =      1;   KBLOCK =      1    inner block; outer block 
   IBRION =     -1    ionic relax: 0-MD 1-quasi-New 2-CG
   NFREE  =      1    steps in history (QN), initial steepest desc. (CG)
   ISIF   =      0    stress and relaxation
   IWAVPR =     10    prediction:  0-non 1-charg 2-wave 3-comb
   ISYM   =      0    0-nonsym 1-usesym 2-fastsym
   LCORR  =      T    Harris-Foulkes like correction to forces

   POTIM  = 0.5000    time-step for ionic-motion
   TEIN   =    0.0    initial temperature
   TEBEG  =    0.0;   TEEND  =   0.0 temperature during run
   SMASS  =  -3.00    Nose mass-parameter (am)
   estimated Nose-frequenzy (Omega)   =  0.10E-29 period in steps = 0.13E+47 mass=  -0.156E-27a.u.
   SCALEE = 1.0000    scale energy and forces
   NPACO  =    256;   APACO  = 16.0  distance and # of slots for P.C.
   PSTRESS=    0.0 pullay stress

  Mass of Ions in am
   POMASS = 195.08
  Ionic Valenz
   ZVAL   =  10.00
  Atomic Wigner-Seitz radii
   RWIGS  =  -1.00
  virtual crystal weights 
   VCA    =   1.00
   NELECT =      10.0000    total number of electrons
   NUPDOWN=      -1.0000    fix difference up-down

 DOS related values:
   EMIN   =  10.00;   EMAX   =-10.00  energy-range for DOS
   EFERMI =   0.00
   ISMEAR =     0;   SIGMA  =   0.05  broadening in eV -4-tet -1-fermi 0-gaus

 Electronic relaxation 2 (details)
   IALGO  =     38    algorithm
   LDIAG  =      T    sub-space diagonalisation (order eigenvalues)
   LSUBROT=      F    optimize rotation matrix (better conditioning)
   TURBO    =      0    0=normal 1=particle mesh
   IRESTART =      0    0=no restart 2=restart with 2 vectors
   NREBOOT  =      0    no. of reboots
   NMIN     =      0    reboot dimension
   EREF     =   0.00    reference energy to select bands
   IMIX   =      4    mixing-type and parameters
     AMIX     =   0.40;   BMIX     =  1.00
     AMIX_MAG =   1.60;   BMIX_MAG =  1.00
     AMIN     =   0.10
     WC   =   100.;   INIMIX=   1;  MIXPRE=   1;  MAXMIX= -45

 Intra band minimization:
   WEIMIN = 0.0000     energy-eigenvalue tresh-hold
   EBREAK =  0.21E-05  absolut break condition
   DEPER  =   0.30     relativ break condition  

   TIME   =   0.40     timestep for ELM

  volume/ion in A,a.u.               =      12.56        84.75
  Fermi-wavevector in a.u.,A,eV,Ry     =   1.517359  2.867394 31.325779  2.302380
  Thomas-Fermi vector in A             =   2.626625
 
 Write flags
   LWAVE        =      F    write WAVECAR
   LDOWNSAMPLE  =      F    k-point downsampling of WAVECAR
   LCHARG       =      T    write CHGCAR
   LVTOT        =      F    write LOCPOT, total local potential
   LVHAR        =      F    write LOCPOT, Hartree potential only
   LELF         =      F    write electronic localiz. function (ELF)
   LORBIT       =     11    0 simple, 1 ext, 2 COOP (PROOUT), +10 PAW based schemes


 Dipole corrections
   LMONO  =      F    monopole corrections only (constant potential shift)
   LDIPOL =      F    correct potential (dipole corrections)
   IDIPOL =      0    1-x, 2-y, 3-z, 4-all directions 
   EPSILON=  1.0000000 bulk dielectric constant

 Exchange correlation treatment:
   GGA     =    RP    GGA type
   LEXCH   =     9    internal setting for exchange type
   VOSKOWN=      0    Vosko Wilk Nusair interpolation
   LHFCALC =     F    Hartree Fock is set to
   LHFONE  =     F    Hartree Fock one center treatment
   AEXX    =    0.0000 exact exchange contribution

 Linear response parameters
   LEPSILON=     F    determine dielectric tensor
   LRPA    =     F    only Hartree local field effects (RPA)
   LNABLA  =     F    use nabla operator in PAW spheres
   LVEL    =     F    velocity operator in full k-point grid
   LINTERFAST=   F  fast interpolation
   KINTER  =     0    interpolate to denser k-point grid
   CSHIFT  =0.1000    complex shift for real part using Kramers Kronig
   OMEGAMAX=  -1.0    maximum frequency
   DEG_THRESHOLD= 0.2000000E-02 threshold for treating states as degnerate
   RTIME   =   -0.100 relaxation time in fs
  (WPLASMAI=    0.000 imaginary part of plasma frequency in eV, 0.658/RTIME)
   DFIELD  = 0.0000000 0.0000000 0.0000000 field for delta impulse in time
 
 Orbital magnetization related:
   ORBITALMAG=     F  switch on orbital magnetization
   LCHIMAG   =     F  perturbation theory with respect to B field
   DQ        =  0.001000  dq finite difference perturbation B field
   LLRAUG    =     F  two centre corrections for induced B field



--------------------------------------------------------------------------------------------------------


 Static calculation
 charge density and potential will be updated during run
 non-spin polarized calculation
 Variant of blocked Davidson
 Davidson routine will perform the subspace rotation
 perform sub-space diagonalisation
    after iterative eigenvector-optimisation
 modified Broyden-mixing scheme, WC =      100.0
 initial mixing is a Kerker type mixing with AMIX =  0.4000 and BMIX =      1.0000
 Hartree-type preconditioning will be used
 using additional bands             7
 reciprocal scheme for non local part
 use partial core corrections
 calculate Harris-corrections to forces 
   (improved forces if not selfconsistent)
 use gradient corrections 
 use of overlap-Matrix (Vanderbilt PP)
 Gauss-broadening in eV      SIGMA  =   0.05


--------------------------------------------------------------------------------------------------------


  energy-cutoff  :      420.00
  volume of cell :       12.56
      direct lattice vectors                 reciprocal lattice vectors
     2.259551000  0.000004000  1.304566000     0.442566528 -0.156471683 -0.000000778
     0.753189000  2.130323000  1.304566000    -0.000000415  0.469412972 -0.000000720
     0.000006000  0.000004000  2.609111000    -0.221284837 -0.156471904  0.383273059

  length of vectors
     2.609111567  2.609111382  2.609111000     0.469412952  0.469412972  0.469413116


 
 k-points in units of 2pi/SCALE and weight: read from INCAR                         
   0.00000000  0.00000000  0.00000000       0.005
   0.07376109 -0.02607861 -0.00000013       0.009
  -0.00000007  0.07823550 -0.00000012       0.009
  -0.03688081 -0.02607865  0.06387884       0.009
   0.03688021  0.02607823  0.06387859       0.009
   0.14752218 -0.05215723 -0.00000026       0.009
  -0.00000014  0.15647099 -0.00000024       0.009
  -0.07376161 -0.05215730  0.12775769       0.009
   0.07376043  0.05215646  0.12775719       0.009
   0.22128326 -0.07823584 -0.00000039       0.005
  -0.00000021  0.23470649 -0.00000036       0.005
  -0.11064242 -0.07823595  0.19163653       0.005
   0.11064064  0.07823469  0.19163578       0.005
   0.07376102  0.05215688 -0.00000025       0.009
  -0.03688088  0.05215684  0.06387872       0.009
   0.03688028 -0.05215726  0.06387871       0.009
   0.14752211  0.02607827 -0.00000038       0.009
  -0.03688094  0.13039234  0.06387860       0.009
  -0.00000052 -0.07823592  0.12775756       0.009
   0.11064182  0.07823553 -0.06387909       0.009
   0.07376049 -0.02607903  0.12775731       0.009
   0.07376095  0.13039238 -0.00000037       0.009
   0.11064196 -0.07823546 -0.06387885       0.009
   0.11064123  0.07823511  0.06387834       0.009
  -0.07376168  0.02607819  0.12775757       0.009
  -0.03688035  0.13039276 -0.06387883       0.009
  -0.00000066  0.07823508  0.12775732       0.009
   0.11064137 -0.07823588  0.06387858       0.009
   0.22128319 -0.00000035 -0.00000051       0.009
  -0.03688101  0.20862784  0.06387848       0.009
  -0.03688133 -0.10431457  0.19163640       0.009
   0.14752263  0.10431418 -0.12775794       0.009
   0.11064071 -0.00000080  0.19163590       0.009
   0.07376088  0.20862787 -0.00000049       0.009
   0.18440305 -0.10431407 -0.06387898       0.009
   0.14752144  0.10431334  0.12775694       0.009
  -0.11064249 -0.00000046  0.19163641       0.009
  -0.03688042  0.20862826 -0.06387895       0.009
   0.03687955  0.10431331  0.19163591       0.009
   0.18440246 -0.10431449  0.06387845       0.009
  -0.14752225  0.13039272  0.00000014       0.009
  -0.03688067 -0.18254964  0.06387908       0.009
   0.14752270  0.02607869 -0.12775782       0.009
  -0.03688140 -0.02607907  0.19163628       0.009
  -0.07376077  0.33902102 -0.12775779       0.009
   0.07376123 -0.18254960  0.00000011       0.009
   0.25816414 -0.13039269 -0.06387911       0.009
  -0.25816446 -0.18254972  0.19163703       0.009
   0.07376154  0.13039280 -0.12775781       0.009
  -0.03688049  0.28686375 -0.06387907       0.009
   0.29504501 -0.18254953 -0.12775784       0.009
  -0.18440298  0.02607858  0.06387910       0.009
  -0.07376116  0.10431411  0.00000001       0.009
  -0.03688074 -0.10431415  0.06387896       0.009
   0.11064189  0.00000004 -0.06387897       0.009
  -0.00000059 -0.00000042  0.12775744       0.009
  -0.03688014 -0.10431373 -0.06387847       0.009
  -0.11064130  0.00000038 -0.06387846       0.009
   0.14752204  0.10431376 -0.00000050       0.009
  -0.07376175  0.10431369  0.12775745       0.009
   0.07376056 -0.10431453  0.12775743       0.009
   0.22128313  0.07823515 -0.00000063       0.009
  -0.07376182  0.18254918  0.12775733       0.009
   0.03687976 -0.13039318  0.19163627       0.009
   0.18440284  0.13039241 -0.06387934       0.009
   0.11064078 -0.07823630  0.19163602       0.009
   0.14752197  0.18254926 -0.00000062       0.009
   0.14752284 -0.13039230 -0.12775758       0.009
   0.18440225  0.13039199  0.06387809       0.009
  -0.11064256  0.07823504  0.19163629       0.009
  -0.07376063  0.18255002 -0.12775755       0.009
  -0.03688154  0.13039192  0.19163604       0.009
   0.14752165 -0.13039314  0.12775730       0.009
  -0.14752231  0.20862822  0.00000002       0.009
  -0.07376147 -0.20862829  0.12775793       0.009
   0.22128379  0.00000007 -0.12775795       0.009
   0.22128365  0.15647106 -0.12775819       0.009
  -0.07376070  0.26078552 -0.12775767       0.009
   0.22128393 -0.15647092 -0.12775771       0.009
   0.22128306  0.15647064 -0.00000075       0.005
  -0.11064263  0.15647053  0.19163617       0.005
   0.11064085 -0.15647179  0.19163614       0.005
   0.18440232  0.05215650  0.06387821       0.009
  -0.00000073  0.15647057  0.12775720       0.009
   0.03687969 -0.05215768  0.19163615       0.009
   0.18440291  0.05215692 -0.06387922       0.009
   0.14752158 -0.05215765  0.12775718       0.009
   0.11064203 -0.15647095 -0.06387873       0.009
   0.11064176  0.15647103 -0.06387921       0.009
   0.14752277 -0.05215681 -0.12775770       0.009
   0.11064116  0.15647061  0.06387822       0.009
   0.00000046  0.15647141 -0.12775768       0.009
  -0.11064144  0.15647137 -0.06387870       0.009
  -0.03688147  0.05215642  0.19163616       0.009
  -0.18440312  0.18254957  0.06387886       0.009
  -0.00000039 -0.23470691  0.12775780       0.009
   0.22128372  0.07823557 -0.12775807       0.009
  -0.25816473  0.13039227  0.19163655       0.009
   0.11064169  0.23470652 -0.06387933       0.009
   0.22128386 -0.07823542 -0.12775783       0.009
   0.14752179 -0.28686413  0.12775754       0.009
  -0.18440358  0.02607816  0.19163654       0.009
  -0.11064151  0.23470687 -0.06387882       0.009
   0.22128358  0.23470656 -0.12775831       0.009
   0.18440253 -0.18254999  0.06387857       0.009
  -0.14752256 -0.18254968  0.12775806       0.009
  -0.18440319  0.26078506  0.06387874       0.009
  -0.03688119 -0.26078556  0.19163664       0.009
   0.29504481  0.05215696 -0.12775820       0.009
   0.25816393  0.10431380 -0.06387947       0.009
  -0.25816466  0.05215677  0.19163667       0.009
   0.14752249  0.26078517 -0.12775818       0.009
 
 k-points in reciprocal lattice and weights: read from INCAR                         
   0.00000000  0.00000000  0.00000000       0.005
   0.16666667  0.00000000  0.00000000       0.009
   0.00000000  0.16666667  0.00000000       0.009
   0.00000000  0.00000000  0.16666667       0.009
   0.16666667  0.16666667  0.16666667       0.009
   0.33333333  0.00000000  0.00000000       0.009
   0.00000000  0.33333333  0.00000000       0.009
   0.00000000  0.00000000  0.33333333       0.009
   0.33333333  0.33333333  0.33333333       0.009
   0.50000000  0.00000000  0.00000000       0.005
   0.00000000  0.50000000  0.00000000       0.005
   0.00000000  0.00000000  0.50000000       0.005
   0.50000000  0.50000000  0.50000000       0.005
   0.16666667  0.16666667  0.00000000       0.009
   0.00000000  0.16666667  0.16666667       0.009
   0.16666667  0.00000000  0.16666667       0.009
   0.33333333  0.16666667  0.00000000       0.009
   0.00000000  0.33333333  0.16666667       0.009
   0.16666667  0.00000000  0.33333333       0.009
   0.16666667  0.16666667 -0.16666667       0.009
   0.33333333  0.16666667  0.33333333       0.009
   0.16666667  0.33333333  0.00000000       0.009
   0.16666667 -0.16666667 -0.16666667       0.009
   0.33333333  0.33333333  0.16666667       0.009
   0.00000000  0.16666667  0.33333333       0.009
  -0.16666667  0.16666667 -0.16666667       0.009
   0.16666667  0.33333333  0.33333333       0.009
   0.33333333  0.00000000  0.16666667       0.009
   0.50000000  0.16666667  0.00000000       0.009
   0.00000000  0.50000000  0.16666667       0.009
   0.16666667  0.00000000  0.50000000       0.009
   0.16666667  0.16666667 -0.33333333       0.009
   0.50000000  0.33333333  0.50000000       0.009
   0.16666667  0.50000000  0.00000000       0.009
   0.33333333 -0.16666667 -0.16666667       0.009
   0.50000000  0.50000000  0.33333333       0.009
   0.00000000  0.16666667  0.50000000       0.009
  -0.16666667  0.33333333 -0.16666667       0.009
   0.33333333  0.50000000  0.50000000       0.009
   0.50000000  0.00000000  0.16666667       0.009
  -0.33333333  0.16666667  0.00000000       0.009
   0.00000000 -0.33333333  0.16666667       0.009
   0.16666667  0.00000000 -0.33333333       0.009
   0.16666667  0.16666667  0.50000000       0.009
  -0.33333333  0.50000000 -0.33333333       0.009
   0.16666667 -0.33333333  0.00000000       0.009
   0.50000000 -0.16666667 -0.16666667       0.009
  -0.33333333 -0.33333333  0.50000000       0.009
   0.00000000  0.16666667 -0.33333333       0.009
  -0.16666667  0.50000000 -0.16666667       0.009
   0.50000000 -0.33333333 -0.33333333       0.009
  -0.33333333  0.00000000  0.16666667       0.009
  -0.16666667  0.16666667  0.00000000       0.009
   0.00000000 -0.16666667  0.16666667       0.009
   0.16666667  0.00000000 -0.16666667       0.009
   0.16666667  0.16666667  0.33333333       0.009
  -0.16666667 -0.33333333 -0.16666667       0.009
  -0.33333333 -0.16666667 -0.16666667       0.009
   0.33333333  0.33333333  0.00000000       0.009
   0.00000000  0.33333333  0.33333333       0.009
   0.33333333  0.00000000  0.33333333       0.009
   0.50000000  0.33333333  0.00000000       0.009
   0.00000000  0.50000000  0.33333333       0.009
   0.33333333  0.00000000  0.50000000       0.009
   0.33333333  0.33333333 -0.16666667       0.009
   0.50000000  0.16666667  0.50000000       0.009
   0.33333333  0.50000000  0.00000000       0.009
   0.16666667 -0.33333333 -0.33333333       0.009
   0.50000000  0.50000000  0.16666667       0.009
   0.00000000  0.33333333  0.50000000       0.009
  -0.33333333  0.16666667 -0.33333333       0.009
   0.16666667  0.50000000  0.50000000       0.009
   0.50000000  0.00000000  0.33333333       0.009
  -0.33333333  0.33333333  0.00000000       0.009
   0.00000000 -0.33333333  0.33333333       0.009
   0.33333333  0.00000000 -0.33333333       0.009
   0.33333333  0.33333333 -0.33333333       0.009
  -0.33333333  0.33333333 -0.33333333       0.009
   0.33333333 -0.33333333 -0.33333333       0.009
   0.50000000  0.50000000  0.00000000       0.005
   0.00000000  0.50000000  0.50000000       0.005
   0.50000000  0.00000000  0.50000000       0.005
   0.50000000  0.33333333  0.16666667       0.009
   0.16666667  0.50000000  0.33333333       0.009
   0.33333333  0.16666667  0.50000000       0.009
   0.33333333  0.16666667 -0.16666667       0.009
   0.50000000  0.16666667  0.33333333       0.009
   0.16666667 -0.33333333 -0.16666667       0.009
   0.16666667  0.33333333 -0.16666667       0.009
   0.16666667 -0.16666667 -0.33333333       0.009
   0.33333333  0.50000000  0.16666667       0.009
  -0.16666667  0.16666667 -0.33333333       0.009
  -0.33333333  0.16666667 -0.16666667       0.009
   0.16666667  0.33333333  0.50000000       0.009
  -0.33333333  0.33333333  0.16666667       0.009
   0.16666667 -0.33333333  0.33333333       0.009
   0.33333333  0.16666667 -0.33333333       0.009
  -0.33333333  0.33333333  0.50000000       0.009
   0.16666667  0.50000000 -0.16666667       0.009
   0.33333333 -0.16666667 -0.33333333       0.009
   0.50000000 -0.33333333  0.33333333       0.009
  -0.16666667  0.16666667  0.50000000       0.009
  -0.33333333  0.33333333 -0.16666667       0.009
   0.33333333  0.50000000 -0.33333333       0.009
   0.50000000 -0.16666667  0.16666667       0.009
  -0.16666667 -0.33333333  0.33333333       0.009
  -0.33333333  0.50000000  0.16666667       0.009
   0.16666667 -0.33333333  0.50000000       0.009
   0.50000000  0.16666667 -0.33333333       0.009
   0.50000000  0.33333333 -0.16666667       0.009
  -0.33333333  0.16666667  0.50000000       0.009
   0.16666667  0.50000000 -0.33333333       0.009
 
 position of ions in fractional coordinates (direct lattice) 
   0.00000000  0.00000000  0.00000000
 
 position of ions in cartesian coordinates  (Angst):
   0.00000000  0.00000000  0.00000000
 


--------------------------------------------------------------------------------------------------------


 k-point   1 :   0.0000 0.0000 0.0000  plane waves:     259
 k-point   2 :   0.1667 0.0000 0.0000  plane waves:     250
 k-point   3 :   0.0000 0.1667 0.0000  plane waves:     250
 k-point   4 :   0.0000 0.0000 0.1667  plane waves:     250
 k-point   5 :   0.1667 0.1667 0.1667  plane waves:     250
 k-point   6 :   0.3333 0.0000 0.0000  plane waves:     256
 k-point   7 :   0.0000 0.3333 0.0000  plane waves:     256
 k-point   8 :   0.0000 0.0000 0.3333  plane waves:     256
 k-point   9 :   0.3333 0.3333 0.3333  plane waves:     256
 k-point  10 :   0.5000 0.0000 0.0000  plane waves:     242
 k-point  11 :   0.0000 0.5000 0.0000  plane waves:     242
 k-point  12 :   0.0000 0.0000 0.5000  plane waves:     242
 k-point  13 :   0.5000 0.5000 0.5000  plane waves:     242
 k-point  14 :   0.1667 0.1667 0.0000  plane waves:     246
 k-point  15 :   0.0000 0.1667 0.1667  plane waves:     246
 k-point  16 :   0.1667 0.0000 0.1667  plane waves:     246
 k-point  17 :   0.3333 0.1667 0.0000  plane waves:     243
 k-point  18 :   0.0000 0.3333 0.1667  plane waves:     243
 k-point  19 :   0.1667 0.0000 0.3333  plane waves:     243
 k-point  20 :   0.1667 0.1667-0.1667  plane waves:     243
 k-point  21 :   0.3333 0.1667 0.3333  plane waves:     243
 k-point  22 :   0.1667 0.3333 0.0000  plane waves:     243
 k-point  23 :   0.1667-0.1667-0.1667  plane waves:     243
 k-point  24 :   0.3333 0.3333 0.1667  plane waves:     243
 k-point  25 :   0.0000 0.1667 0.3333  plane waves:     243
 k-point  26 :  -0.1667 0.1667-0.1667  plane waves:     243
 k-point  27 :   0.1667 0.3333 0.3333  plane waves:     243
 k-point  28 :   0.3333 0.0000 0.1667  plane waves:     243
 k-point  29 :   0.5000 0.1667 0.0000  plane waves:     247
 k-point  30 :   0.0000 0.5000 0.1667  plane waves:     247
 k-point  31 :   0.1667 0.0000 0.5000  plane waves:     247
 k-point  32 :   0.1667 0.1667-0.3333  plane waves:     247
 k-point  33 :   0.5000 0.3333 0.5000  plane waves:     247
 k-point  34 :   0.1667 0.5000 0.0000  plane waves:     247
 k-point  35 :   0.3333-0.1667-0.1667  plane waves:     247
 k-point  36 :   0.5000 0.5000 0.3333  plane waves:     247
 k-point  37 :   0.0000 0.1667 0.5000  plane waves:     247
 k-point  38 :  -0.1667 0.3333-0.1667  plane waves:     247
 k-point  39 :   0.3333 0.5000 0.5000  plane waves:     247
 k-point  40 :   0.5000 0.0000 0.1667  plane waves:     247
 k-point  41 :  -0.3333 0.1667 0.0000  plane waves:     250
 k-point  42 :   0.0000-0.3333 0.1667  plane waves:     250
 k-point  43 :   0.1667 0.0000-0.3333  plane waves:     250
 k-point  44 :   0.1667 0.1667 0.5000  plane waves:     250
 k-point  45 :  -0.3333 0.5000-0.3333  plane waves:     250
 k-point  46 :   0.1667-0.3333 0.0000  plane waves:     250
 k-point  47 :   0.5000-0.1667-0.1667  plane waves:     250
 k-point  48 :  -0.3333-0.3333 0.5000  plane waves:     250
 k-point  49 :   0.0000 0.1667-0.3333  plane waves:     250
 k-point  50 :  -0.1667 0.5000-0.1667  plane waves:     250
 k-point  51 :   0.5000-0.3333-0.3333  plane waves:     250
 k-point  52 :  -0.3333 0.0000 0.1667  plane waves:     250
 k-point  53 :  -0.1667 0.1667 0.0000  plane waves:     255
 k-point  54 :   0.0000-0.1667 0.1667  plane waves:     255
 k-point  55 :   0.1667 0.0000-0.1667  plane waves:     255
 k-point  56 :   0.1667 0.1667 0.3333  plane waves:     255
 k-point  57 :  -0.1667-0.3333-0.1667  plane waves:     255
 k-point  58 :  -0.3333-0.1667-0.1667  plane waves:     255
 k-point  59 :   0.3333 0.3333 0.0000  plane waves:     246
 k-point  60 :   0.0000 0.3333 0.3333  plane waves:     246
 k-point  61 :   0.3333 0.0000 0.3333  plane waves:     246
 k-point  62 :   0.5000 0.3333 0.0000  plane waves:     237
 k-point  63 :   0.0000 0.5000 0.3333  plane waves:     237
 k-point  64 :   0.3333 0.0000 0.5000  plane waves:     237
 k-point  65 :   0.3333 0.3333-0.1667  plane waves:     237
 k-point  66 :   0.5000 0.1667 0.5000  plane waves:     237
 k-point  67 :   0.3333 0.5000 0.0000  plane waves:     237
 k-point  68 :   0.1667-0.3333-0.3333  plane waves:     237
 k-point  69 :   0.5000 0.5000 0.1667  plane waves:     237
 k-point  70 :   0.0000 0.3333 0.5000  plane waves:     237
 k-point  71 :  -0.3333 0.1667-0.3333  plane waves:     237
 k-point  72 :   0.1667 0.5000 0.5000  plane waves:     237
 k-point  73 :   0.5000 0.0000 0.3333  plane waves:     237
 k-point  74 :  -0.3333 0.3333 0.0000  plane waves:     236
 k-point  75 :   0.0000-0.3333 0.3333  plane waves:     236
 k-point  76 :   0.3333 0.0000-0.3333  plane waves:     236
 k-point  77 :   0.3333 0.3333-0.3333  plane waves:     236
 k-point  78 :  -0.3333 0.3333-0.3333  plane waves:     236
 k-point  79 :   0.3333-0.3333-0.3333  plane waves:     236
 k-point  80 :   0.5000 0.5000 0.0000  plane waves:     254
 k-point  81 :   0.0000 0.5000 0.5000  plane waves:     254
 k-point  82 :   0.5000 0.0000 0.5000  plane waves:     254
 k-point  83 :   0.5000 0.3333 0.1667  plane waves:     249
 k-point  84 :   0.1667 0.5000 0.3333  plane waves:     249
 k-point  85 :   0.3333 0.1667 0.5000  plane waves:     249
 k-point  86 :   0.3333 0.1667-0.1667  plane waves:     249
 k-point  87 :   0.5000 0.1667 0.3333  plane waves:     249
 k-point  88 :   0.1667-0.3333-0.1667  plane waves:     249
 k-point  89 :   0.1667 0.3333-0.1667  plane waves:     249
 k-point  90 :   0.1667-0.1667-0.3333  plane waves:     249
 k-point  91 :   0.3333 0.5000 0.1667  plane waves:     249
 k-point  92 :  -0.1667 0.1667-0.3333  plane waves:     249
 k-point  93 :  -0.3333 0.1667-0.1667  plane waves:     249
 k-point  94 :   0.1667 0.3333 0.5000  plane waves:     249
 k-point  95 :  -0.3333 0.3333 0.1667  plane waves:     244
 k-point  96 :   0.1667-0.3333 0.3333  plane waves:     244
 k-point  97 :   0.3333 0.1667-0.3333  plane waves:     244
 k-point  98 :  -0.3333 0.3333 0.5000  plane waves:     244
 k-point  99 :   0.1667 0.5000-0.1667  plane waves:     244
 k-point 100 :   0.3333-0.1667-0.3333  plane waves:     244
 k-point 101 :   0.5000-0.3333 0.3333  plane waves:     244
 k-point 102 :  -0.1667 0.1667 0.5000  plane waves:     244
 k-point 103 :  -0.3333 0.3333-0.1667  plane waves:     244
 k-point 104 :   0.3333 0.5000-0.3333  plane waves:     244
 k-point 105 :   0.5000-0.1667 0.1667  plane waves:     244
 k-point 106 :  -0.1667-0.3333 0.3333  plane waves:     244
 k-point 107 :  -0.3333 0.5000 0.1667  plane waves:     244
 k-point 108 :   0.1667-0.3333 0.5000  plane waves:     244
 k-point 109 :   0.5000 0.1667-0.3333  plane waves:     244
 k-point 110 :   0.5000 0.3333-0.1667  plane waves:     244
 k-point 111 :  -0.3333 0.1667 0.5000  plane waves:     244
 k-point 112 :   0.1667 0.5000-0.3333  plane waves:     244

 maximum and minimum number of plane-waves per node :        69       53

 maximum number of plane-waves:       259
 maximum index in each direction: 
   IXMAX=    4   IYMAX=    4   IZMAX=    4
   IXMIN=   -4   IYMIN=   -4   IZMIN=   -4


 parallel 3D FFT for wavefunctions:
    minimum data exchange during FFTs selected (reduces bandwidth)
 parallel 3D FFT for charge:
    minimum data exchange during FFTs selected (reduces bandwidth)


 total amount of memory used by VASP MPI-rank0    31776. kBytes
=======================================================================

   base      :      30000. kBytes
   nonl-proj :       1097. kBytes
   fftplans  :         80. kBytes
   grid      :        111. kBytes
   one-center:         15. kBytes
   wavefun   :        473. kBytes
 
     INWAV:  cpu time    0.0000: real time    0.0000
 Broyden mixing: mesh for mixing (old mesh)
   NGX =  9   NGY =  9   NGZ =  9
  (NGX  = 28   NGY  = 28   NGZ  = 28)
  gives a total of    729 points

 initial charge density was supplied:
 charge density of overlapping atoms calculated
 number of electron      10.0000000 magnetization 
 keeping initial charge density in first step


--------------------------------------------------------------------------------------------------------


 Maximum index for augmentation-charges           848 (set IRDMAX)


--------------------------------------------------------------------------------------------------------


 First call to EWALD:  gamma=   0.763
 Maximum number of real-space cells 3x 3x 3
 Maximum number of reciprocal cells 3x 3x 3

    FEWALD:  cpu time    0.0009: real time    0.0009


--------------------------------------- Iteration      1(   1)  ---------------------------------------


    POTLOK:  cpu time    0.0037: real time    0.0038
    SETDIJ:  cpu time    0.0047: real time    0.0047
     EDDAV:  cpu time    0.4439: real time    0.4470
       DOS:  cpu time    0.0015: real time    0.0015
    --------------------------------------------
      LOOP:  cpu time    0.4539: real time    0.4570

 eigenvalue-minimisations  :  2808
 total energy-change (2. order) : 0.3661876E+02  (-0.4602051E+03)
 number of electron      10.0000000 magnetization 
 augmentation part       10.0000000 magnetization 

 Free energy of the ion-electron system (eV)
  ---------------------------------------------------
  alpha Z        PSCENC =        75.68866627
  Ewald energy   TEWEN  =      -894.63525614
  -Hartree energ DENC   =       -56.33220643
  -exchange      EXHF   =         0.00000000
  -V(xc)+E(xc)   XCENC  =         4.47149438
  PAW double counting   =       696.70595042     -667.45827301
  entropy T*S    EENTRO =        -0.00071110
  eigenvalues    EBANDS =       149.85989091
  atomic energy  EATOM  =       728.31920932
  Solvation  Ediel_sol  =         0.00000000
  ---------------------------------------------------
  free energy    TOTEN  =        36.61876462 eV

  energy without entropy =       36.61947572  energy(sigma->0) =       36.61912017


--------------------------------------------------------------------------------------------------------




--------------------------------------- Iteration      1(   2)  ---------------------------------------


     EDDAV:  cpu time    0.6029: real time    0.6086
       DOS:  cpu time    0.0015: real time    0.0015
    --------------------------------------------
      LOOP:  cpu time    0.6044: real time    0.6101

 eigenvalue-minimisations  :  3256
 total energy-change (2. order) :-0.4119657E+02  (-0.3926606E+02)
 number of electron      10.0000000 magnetization 
 augmentation part       10.0000000 magnetization 

 Free energy of the ion-electron system (eV)
  ---------------------------------------------------
  alpha Z        PSCENC =        75.68866627
  Ewald energy   TEWEN  =      -894.63525614
  -Hartree energ DENC   =       -56.33220643
  -exchange      EXHF   =         0.00000000
  -V(xc)+E(xc)   XCENC  =         4.47149438
  PAW double counting   =       696.70595042     -667.45827301
  entropy T*S    EENTRO =        -0.00121623
  eigenvalues    EBANDS =       108.66382371
  atomic energy  EATOM  =       728.31920932
  Solvation  Ediel_sol  =         0.00000000
  ---------------------------------------------------
  free energy    TOTEN  =        -4.57780771 eV

  energy without entropy =       -4.57659148  energy(sigma->0) =       -4.57719959


--------------------------------------------------------------------------------------------------------




--------------------------------------- Iteration      1(   3)  ---------------------------------------


     EDDAV:  cpu time    0.4930: real time    0.4936
       DOS:  cpu time    0.0015: real time    0.0015
    --------------------------------------------
      LOOP:  cpu time    0.4945: real time    0.4951

 eigenvalue-minimisations  :  3364
 total energy-change (2. order) :-0.5213186E+00  (-0.5199678E+00)
 number of electron      10.0000000 magnetization 
 augmentation part       10.0000000 magnetization 

 Free energy of the ion-electron system (eV)
  ---------------------------------------------------
  alpha Z        PSCENC =        75.68866627
  Ewald energy   TEWEN  =      -894.63525614
  -Hartree energ DENC   =       -56.33220643
  -exchange      EXHF   =         0.00000000
  -V(xc)+E(xc)   XCENC  =         4.47149438
  PAW double counting   =       696.70595042     -667.45827301
  entropy T*S    EENTRO =        -0.00128797
  eigenvalues    EBANDS =       108.14257683
  atomic energy  EATOM  =       728.31920932
  Solvation  Ediel_sol  =         0.00000000
  ---------------------------------------------------
  free energy    TOTEN  =        -5.09912633 eV

  energy without entropy =       -5.09783836  energy(sigma->0) =       -5.09848235


--------------------------------------------------------------------------------------------------------




--------------------------------------- Iteration      1(   4)  ---------------------------------------


     EDDAV:  cpu time    0.4918: real time    0.4975
       DOS:  cpu time    0.0015: real time    0.0015
    --------------------------------------------
      LOOP:  cpu time    0.4933: real time    0.4990

 eigenvalue-minimisations  :  3388
 total energy-change (2. order) :-0.1836769E-02  (-0.1836660E-02)
 number of electron      10.0000000 magnetization 
 augmentation part       10.0000000 magnetization 

 Free energy of the ion-electron system (eV)
  ---------------------------------------------------
  alpha Z        PSCENC =        75.68866627
  Ewald energy   TEWEN  =      -894.63525614
  -Hartree energ DENC   =       -56.33220643
  -exchange      EXHF   =         0.00000000
  -V(xc)+E(xc)   XCENC  =         4.47149438
  PAW double counting   =       696.70595042     -667.45827301
  entropy T*S    EENTRO =        -0.00128777
  eigenvalues    EBANDS =       108.14073985
  atomic energy  EATOM  =       728.31920932
  Solvation  Ediel_sol  =         0.00000000
  ---------------------------------------------------
  free energy    TOTEN  =        -5.10096310 eV

  energy without entropy =       -5.09967534  energy(sigma->0) =       -5.10031922


--------------------------------------------------------------------------------------------------------




--------------------------------------- Iteration      1(   5)  ---------------------------------------


     EDDAV:  cpu time    0.4946: real time    0.4980
       DOS:  cpu time    0.0015: real time    0.0015
    CHARGE:  cpu time    0.0085: real time    0.0085
    MIXING:  cpu time    0.0002: real time    0.0002
    --------------------------------------------
      LOOP:  cpu time    0.5048: real time    0.5082

 eigenvalue-minimisations  :  3404
 total energy-change (2. order) :-0.1159229E-04  (-0.1159130E-04)
 number of electron       9.9999997 magnetization 
 augmentation part        2.9401545 magnetization 

 Broyden mixing:
  rms(total) = 0.21507E+01    rms(broyden)= 0.21507E+01
  rms(prec ) = 0.25591E+01
  weight for this iteration     100.00

 Free energy of the ion-electron system (eV)
  ---------------------------------------------------
  alpha Z        PSCENC =        75.68866627
  Ewald energy   TEWEN  =      -894.63525614
  -Hartree energ DENC   =       -56.33220643
  -exchange      EXHF   =         0.00000000
  -V(xc)+E(xc)   XCENC  =         4.47149438
  PAW double counting   =       696.70595042     -667.45827301
  entropy T*S    EENTRO =        -0.00128777
  eigenvalues    EBANDS =       108.14072826
  atomic energy  EATOM  =       728.31920932
  Solvation  Ediel_sol  =         0.00000000
  ---------------------------------------------------
  free energy    TOTEN  =        -5.10097470 eV

  energy without entropy =       -5.09968693  energy(sigma->0) =       -5.10033081


--------------------------------------------------------------------------------------------------------




--------------------------------------- Iteration      1(   6)  ---------------------------------------


    POTLOK:  cpu time    0.0036: real time    0.0063
    SETDIJ:  cpu time    0.0043: real time    0.0043
     EDDAV:  cpu time    0.4772: real time    0.4803
       DOS:  cpu time    0.0014: real time    0.0014
    CHARGE:  cpu time    0.0080: real time    0.0080
    MIXING:  cpu time    0.0003: real time    0.0003
    --------------------------------------------
      LOOP:  cpu time    0.4948: real time    0.5006

 eigenvalue-minimisations  :  3252
 total energy-change (2. order) : 0.2461085E+00  (-0.3102766E-01)
 number of electron       9.9999996 magnetization 
 augmentation part        3.0150955 magnetization 

 Broyden mixing:
  rms(total) = 0.11806E+01    rms(broyden)= 0.11806E+01
  rms(prec ) = 0.13143E+01
  weight for this iteration     100.00

 eigenvalues of (default mixing * dielectric matrix)
  average eigenvalue GAMMA=   2.1996
  2.1996

 Free energy of the ion-electron system (eV)
  ---------------------------------------------------
  alpha Z        PSCENC =        75.68866627
  Ewald energy   TEWEN  =      -894.63525614
  -Hartree energ DENC   =       -50.95060209
  -exchange      EXHF   =         0.00000000
  -V(xc)+E(xc)   XCENC  =         4.31373098
  PAW double counting   =       877.39800958     -850.20545920
  entropy T*S    EENTRO =        -0.00149747
  eigenvalues    EBANDS =       105.21833253
  atomic energy  EATOM  =       728.31920932
  Solvation  Ediel_sol  =         0.00000000
  ---------------------------------------------------
  free energy    TOTEN  =        -4.85486621 eV

  energy without entropy =       -4.85336874  energy(sigma->0) =       -4.85411747


--------------------------------------------------------------------------------------------------------




--------------------------------------- Iteration      1(   7)  ---------------------------------------


    POTLOK:  cpu time    0.0060: real time    0.0060
    SETDIJ:  cpu time    0.0038: real time    0.0038
     EDDAV:  cpu time    0.4920: real time    0.4926
       DOS:  cpu time    0.0041: real time    0.0041
    CHARGE:  cpu time    0.0079: real time    0.0079
    MIXING:  cpu time    0.0004: real time    0.0004
    --------------------------------------------
      LOOP:  cpu time    0.5141: real time    0.5148

 eigenvalue-minimisations  :  3364
 total energy-change (2. order) : 0.6480594E-01  (-0.1715072E-01)
 number of electron       9.9999996 magnetization 
 augmentation part        3.0708743 magnetization 

 Broyden mixing:
  rms(total) = 0.20131E+00    rms(broyden)= 0.20131E+00
  rms(prec ) = 0.21411E+00
  weight for this iteration     100.00

 eigenvalues of (default mixing * dielectric matrix)
  average eigenvalue GAMMA=   2.1819
  1.5790  2.7848

 Free energy of the ion-electron system (eV)
  ---------------------------------------------------
  alpha Z        PSCENC =        75.68866627
  Ewald energy   TEWEN  =      -894.63525614
  -Hartree energ DENC   =       -46.70090968
  -exchange      EXHF   =         0.00000000
  -V(xc)+E(xc)   XCENC  =         4.19770745
  PAW double counting   =      1110.97530418    -1085.92634630
  entropy T*S    EENTRO =        -0.00150011
  eigenvalues    EBANDS =       103.29306473
  atomic energy  EATOM  =       728.31920932
  Solvation  Ediel_sol  =         0.00000000
  ---------------------------------------------------
  free energy    TOTEN  =        -4.79006026 eV

  energy without entropy =       -4.78856016  energy(sigma->0) =       -4.78931021


--------------------------------------------------------------------------------------------------------




--------------------------------------- Iteration      1(   8)  ---------------------------------------


    POTLOK:  cpu time    0.0031: real time    0.0031
    SETDIJ:  cpu time    0.0037: real time    0.0037
     EDDAV:  cpu time    0.4750: real time    0.4778
       DOS:  cpu time    0.0015: real time    0.0015
    CHARGE:  cpu time    0.0081: real time    0.0081
    MIXING:  cpu time    0.0003: real time    0.0003
    --------------------------------------------
      LOOP:  cpu time    0.4918: real time    0.4945

 eigenvalue-minimisations  :  3172
 total energy-change (2. order) : 0.4067850E-02  (-0.1102559E-02)
 number of electron       9.9999996 magnetization 
 augmentation part        3.0597858 magnetization 

 Broyden mixing:
  rms(total) = 0.47107E-01    rms(broyden)= 0.47107E-01
  rms(prec ) = 0.47261E-01
  weight for this iteration     100.00

 eigenvalues of (default mixing * dielectric matrix)
  average eigenvalue GAMMA=   1.6562
  2.5172  0.9083  1.5431

 Free energy of the ion-electron system (eV)
  ---------------------------------------------------
  alpha Z        PSCENC =        75.68866627
  Ewald energy   TEWEN  =      -894.63525614
  -Hartree energ DENC   =       -46.91490127
  -exchange      EXHF   =         0.00000000
  -V(xc)+E(xc)   XCENC  =         4.20494315
  PAW double counting   =      1170.62927946    -1146.04941993
  entropy T*S    EENTRO =        -0.00147605
  eigenvalues    EBANDS =       103.97296277
  atomic energy  EATOM  =       728.31920932
  Solvation  Ediel_sol  =         0.00000000
  ---------------------------------------------------
  free energy    TOTEN  =        -4.78599241 eV

  energy without entropy =       -4.78451636  energy(sigma->0) =       -4.78525439


--------------------------------------------------------------------------------------------------------




--------------------------------------- Iteration      1(   9)  ---------------------------------------


    POTLOK:  cpu time    0.0031: real time    0.0032
    SETDIJ:  cpu time    0.0037: real time    0.0037
     EDDAV:  cpu time    0.4773: real time    0.4779
       DOS:  cpu time    0.0015: real time    0.0015
    CHARGE:  cpu time    0.0108: real time    0.0108
    MIXING:  cpu time    0.0003: real time    0.0003
    --------------------------------------------
      LOOP:  cpu time    0.4968: real time    0.4974

 eigenvalue-minimisations  :  3156
 total energy-change (2. order) : 0.1313334E-03  (-0.1416347E-04)
 number of electron       9.9999996 magnetization 
 augmentation part        3.0609750 magnetization 

 Broyden mixing:
  rms(total) = 0.21999E-02    rms(broyden)= 0.21998E-02
  rms(prec ) = 0.35416E-02
  weight for this iteration     100.00

 eigenvalues of (default mixing * dielectric matrix)
  average eigenvalue GAMMA=   1.9730
  1.0403  2.9603  1.4980  2.3933

 Free energy of the ion-electron system (eV)
  ---------------------------------------------------
  alpha Z        PSCENC =        75.68866627
  Ewald energy   TEWEN  =      -894.63525614
  -Hartree energ DENC   =       -46.93311593
  -exchange      EXHF   =         0.00000000
  -V(xc)+E(xc)   XCENC  =         4.20539577
  PAW double counting   =      1159.69453220    -1135.01409596
  entropy T*S    EENTRO =        -0.00147911
  eigenvalues    EBANDS =       103.89028248
  atomic energy  EATOM  =       728.31920932
  Solvation  Ediel_sol  =         0.00000000
  ---------------------------------------------------
  free energy    TOTEN  =        -4.78586108 eV

  energy without entropy =       -4.78438197  energy(sigma->0) =       -4.78512153


--------------------------------------------------------------------------------------------------------




--------------------------------------- Iteration      1(  10)  ---------------------------------------


    POTLOK:  cpu time    0.0032: real time    0.0032
    SETDIJ:  cpu time    0.0037: real time    0.0037
     EDDAV:  cpu time    0.3626: real time    0.3658
       DOS:  cpu time    0.0015: real time    0.0015
    --------------------------------------------
      LOOP:  cpu time    0.3710: real time    0.3741

 eigenvalue-minimisations  :  1952
 total energy-change (2. order) :-0.7318165E-05  (-0.4953472E-06)
 number of electron       9.9999996 magnetization 
 augmentation part        3.0609750 magnetization 

 Free energy of the ion-electron system (eV)
  ---------------------------------------------------
  alpha Z        PSCENC =        75.68866627
  Ewald energy   TEWEN  =      -894.63525614
  -Hartree energ DENC   =       -46.94235156
  -exchange      EXHF   =         0.00000000
  -V(xc)+E(xc)   XCENC  =         4.20597426
  PAW double counting   =      1160.65021101    -1135.95070977
  entropy T*S    EENTRO =        -0.00147730
  eigenvalues    EBANDS =       103.87986551
  atomic energy  EATOM  =       728.31920932
  Solvation  Ediel_sol  =         0.00000000
  ---------------------------------------------------
  free energy    TOTEN  =        -4.78586840 eV

  energy without entropy =       -4.78439109  energy(sigma->0) =       -4.78512975


--------------------------------------------------------------------------------------------------------




 average (electrostatic) potential at core
  the test charge radii are     1.2059
  (the norm of the test charge is              1.0000)
       1 -59.7496
 
 
 
 E-fermi :  15.3147     XC(G=0): -14.5775     alpha+bet :-19.9502

 Fermi energy:        15.3147308360

 k-point     1 :       0.0000    0.0000    0.0000
  band No.  band energies     occupation 
      1       2.8218      2.00000
      2      10.1358      2.00000
      3      10.1359      2.00000
      4      10.1359      2.00000
      5      13.0366      2.00000
      6      13.0366      2.00000
      7      29.0947      0.00000
      8      35.1516      0.00000
      9      35.1519      0.00000
     10      35.1519      0.00000
     11      41.2112      0.00000
     12      47.2181      0.00000

 k-point     2 :       0.1667    0.0000    0.0000
  band No.  band energies     occupation 
      1       4.0654      2.00000
      2       9.6417      2.00000
      3      10.5602      2.00000
      4      10.5603      2.00000
      5      12.8627      2.00000
      6      12.8627      2.00000
      7      30.8932      0.00000
      8      31.6935      0.00000
      9      37.3362      0.00000
     10      37.3365      0.00000
     11      42.9000      0.00000
     12      45.8691      0.00000

 k-point     3 :       0.0000    0.1667    0.0000
  band No.  band energies     occupation 
      1       4.0654      2.00000
      2       9.6417      2.00000
      3      10.5602      2.00000
      4      10.5603      2.00000
      5      12.8627      2.00000
      6      12.8627      2.00000
      7      30.8932      0.00000
      8      31.6935      0.00000
      9      37.3362      0.00000
     10      37.3365      0.00000
     11      42.9000      0.00000
     12      45.8689      0.00000

 k-point     4 :       0.0000    0.0000    0.1667
  band No.  band energies     occupation 
      1       4.0654      2.00000
      2       9.6417      2.00000
      3      10.5602      2.00000
      4      10.5603      2.00000
      5      12.8627      2.00000
      6      12.8627      2.00000
      7      30.8932      0.00000
      8      31.6936      0.00000
      9      37.3362      0.00000
     10      37.3365      0.00000
     11      42.9000      0.00000
     12      45.8690      0.00000

 k-point     5 :       0.1667    0.1667    0.1667
  band No.  band energies     occupation 
      1       4.0653      2.00000
      2       9.6417      2.00000
      3      10.5603      2.00000
      4      10.5603      2.00000
      5      12.8627      2.00000
      6      12.8627      2.00000
      7      30.8932      0.00000
      8      31.6933      0.00000
      9      37.3364      0.00000
     10      37.3365      0.00000
     11      42.8999      0.00000
     12      45.8690      0.00000

 k-point     6 :       0.3333    0.0000    0.0000
  band No.  band energies     occupation 
      1       5.7394      2.00000
      2      10.3703      2.00000
      3      10.3705      2.00000
      4      10.8580      2.00000
      5      14.0820      2.00000
      6      14.0820      2.00000
      7      26.7756      0.00000
      8      30.7383      0.00000
      9      38.5916      0.00000
     10      38.5918      0.00000
     11      41.7733      0.00000
     12      42.8215      0.00000

 k-point     7 :       0.0000    0.3333    0.0000
  band No.  band energies     occupation 
      1       5.7394      2.00000
      2      10.3703      2.00000
      3      10.3705      2.00000
      4      10.8580      2.00000
      5      14.0820      2.00000
      6      14.0820      2.00000
      7      26.7756      0.00000
      8      30.7383      0.00000
      9      38.5916      0.00000
     10      38.5918      0.00000
     11      41.7733      0.00000
     12      42.8215      0.00000

 k-point     8 :       0.0000    0.0000    0.3333
  band No.  band energies     occupation 
      1       5.7394      2.00000
      2      10.3703      2.00000
      3      10.3705      2.00000
      4      10.8580      2.00000
      5      14.0820      2.00000
      6      14.0820      2.00000
      7      26.7756      0.00000
      8      30.7383      0.00000
      9      38.5916      0.00000
     10      38.5918      0.00000
     11      41.7733      0.00000
     12      42.8215      0.00000

 k-point     9 :       0.3333    0.3333    0.3333
  band No.  band energies     occupation 
      1       5.7393      2.00000
      2      10.3704      2.00000
      3      10.3704      2.00000
      4      10.8580      2.00000
      5      14.0821      2.00000
      6      14.0821      2.00000
      7      26.7755      0.00000
      8      30.7382      0.00000
      9      38.5918      0.00000
     10      38.5918      0.00000
     11      41.7732      0.00000
     12      42.8215      0.00000

 k-point    10 :       0.5000    0.0000    0.0000
  band No.  band energies     occupation 
      1       5.7619      2.00000
      2      10.0219      2.00000
      3      10.0220      2.00000
      4      14.0241      2.00000
      5      15.3047      1.22434
      6      15.3047      1.22244
      7      22.6963      0.00000
      8      28.7443      0.00000
      9      35.3561      0.00000
     10      35.3563      0.00000
     11      47.0692      0.00000
     12      47.0692      0.00000

 k-point    11 :       0.0000    0.5000    0.0000
  band No.  band energies     occupation 
      1       5.7619      2.00000
      2      10.0219      2.00000
      3      10.0220      2.00000
      4      14.0241      2.00000
      5      15.3047      1.22429
      6      15.3047      1.22245
      7      22.6963      0.00000
      8      28.7443      0.00000
      9      35.3561      0.00000
     10      35.3563      0.00000
     11      47.0692      0.00000
     12      47.0692      0.00000

 k-point    12 :       0.0000    0.0000    0.5000
  band No.  band energies     occupation 
      1       5.7619      2.00000
      2      10.0219      2.00000
      3      10.0220      2.00000
      4      14.0241      2.00000
      5      15.3047      1.22428
      6      15.3047      1.22241
      7      22.6963      0.00000
      8      28.7443      0.00000
      9      35.3561      0.00000
     10      35.3563      0.00000
     11      47.0692      0.00000
     12      47.0692      0.00000

 k-point    13 :       0.5000    0.5000    0.5000
  band No.  band energies     occupation 
      1       5.7619      2.00000
      2      10.0220      2.00000
      3      10.0220      2.00000
      4      14.0240      2.00000
      5      15.3047      1.22412
      6      15.3047      1.22402
      7      22.6961      0.00000
      8      28.7444      0.00000
      9      35.3563      0.00000
     10      35.3563      0.00000
     11      47.0693      0.00000
     12      47.0693      0.00000

 k-point    14 :       0.1667    0.1667    0.0000
  band No.  band energies     occupation 
      1       4.5000      2.00000
      2       8.9732      2.00000
      3      11.1323      2.00000
      4      11.1324      2.00000
      5      11.7393      2.00000
      6      13.5333      2.00000
      7      32.0094      0.00000
      8      33.4205      0.00000
      9      35.6129      0.00000
     10      35.6131      0.00000
     11      44.3949      0.00000
     12      44.3950      0.00000

 k-point    15 :       0.0000    0.1667    0.1667
  band No.  band energies     occupation 
      1       4.5000      2.00000
      2       8.9732      2.00000
      3      11.1323      2.00000
      4      11.1324      2.00000
      5      11.7393      2.00000
      6      13.5333      2.00000
      7      32.0094      0.00000
      8      33.4205      0.00000
      9      35.6129      0.00000
     10      35.6131      0.00000
     11      44.3949      0.00000
     12      44.3950      0.00000

 k-point    16 :       0.1667    0.0000    0.1667
  band No.  band energies     occupation 
      1       4.5000      2.00000
      2       8.9732      2.00000
      3      11.1323      2.00000
      4      11.1324      2.00000
      5      11.7393      2.00000
      6      13.5333      2.00000
      7      32.0094      0.00000
      8      33.4205      0.00000
      9      35.6129      0.00000
     10      35.6131      0.00000
     11      44.3949      0.00000
     12      44.3951      0.00000

 k-point    17 :       0.3333    0.1667    0.0000
  band No.  band energies     occupation 
      1       6.3503      2.00000
      2       8.5827      2.00000
      3      10.2270      2.00000
      4      11.5492      2.00000
      5      13.7308      2.00000
      6      14.5236      2.00000
      7      29.4099      0.00000
      8      32.9971      0.00000
      9      35.0865      0.00000
     10      36.6384      0.00000
     11      42.5011      0.00000
     12      42.5749      0.00000

 k-point    18 :       0.0000    0.3333    0.1667
  band No.  band energies     occupation 
      1       6.3503      2.00000
      2       8.5827      2.00000
      3      10.2270      2.00000
      4      11.5492      2.00000
      5      13.7308      2.00000
      6      14.5236      2.00000
      7      29.4099      0.00000
      8      32.9971      0.00000
      9      35.0865      0.00000
     10      36.6384      0.00000
     11      42.5011      0.00000
     12      42.5749      0.00000

 k-point    19 :       0.1667    0.0000    0.3333
  band No.  band energies     occupation 
      1       6.3503      2.00000
      2       8.5827      2.00000
      3      10.2270      2.00000
      4      11.5492      2.00000
      5      13.7308      2.00000
      6      14.5236      2.00000
      7      29.4099      0.00000
      8      32.9971      0.00000
      9      35.0865      0.00000
     10      36.6384      0.00000
     11      42.5011      0.00000
     12      42.5749      0.00000

 k-point    20 :       0.1667    0.1667   -0.1667
  band No.  band energies     occupation 
      1       6.3502      2.00000
      2       8.5827      2.00000
      3      10.2269      2.00000
      4      11.5493      2.00000
      5      13.7307      2.00000
      6      14.5236      2.00000
      7      29.4099      0.00000
      8      32.9971      0.00000
      9      35.0866      0.00000
     10      36.6384      0.00000
     11      42.5013      0.00000
     12      42.5747      0.00000

 k-point    21 :       0.3333    0.1667    0.3333
  band No.  band energies     occupation 
      1       6.3502      2.00000
      2       8.5827      2.00000
      3      10.2269      2.00000
      4      11.5493      2.00000
      5      13.7308      2.00000
      6      14.5236      2.00000
      7      29.4097      0.00000
      8      32.9970      0.00000
      9      35.0867      0.00000
     10      36.6383      0.00000
     11      42.5012      0.00000
     12      42.5749      0.00000

 k-point    22 :       0.1667    0.3333    0.0000
  band No.  band energies     occupation 
      1       6.3503      2.00000
      2       8.5827      2.00000
      3      10.2270      2.00000
      4      11.5492      2.00000
      5      13.7308      2.00000
      6      14.5236      2.00000
      7      29.4099      0.00000
      8      32.9971      0.00000
      9      35.0865      0.00000
     10      36.6384      0.00000
     11      42.5011      0.00000
     12      42.5749      0.00000

 k-point    23 :       0.1667   -0.1667   -0.1667
  band No.  band energies     occupation 
      1       6.3502      2.00000
      2       8.5827      2.00000
      3      10.2269      2.00000
      4      11.5493      2.00000
      5      13.7307      2.00000
      6      14.5236      2.00000
      7      29.4099      0.00000
      8      32.9971      0.00000
      9      35.0867      0.00000
     10      36.6384      0.00000
     11      42.5013      0.00000
     12      42.5747      0.00000

 k-point    24 :       0.3333    0.3333    0.1667
  band No.  band energies     occupation 
      1       6.3502      2.00000
      2       8.5827      2.00000
      3      10.2269      2.00000
      4      11.5492      2.00000
      5      13.7308      2.00000
      6      14.5236      2.00000
      7      29.4097      0.00000
      8      32.9970      0.00000
      9      35.0867      0.00000
     10      36.6383      0.00000
     11      42.5012      0.00000
     12      42.5749      0.00000

 k-point    25 :       0.0000    0.1667    0.3333
  band No.  band energies     occupation 
      1       6.3503      2.00000
      2       8.5827      2.00000
      3      10.2270      2.00000
      4      11.5492      2.00000
      5      13.7308      2.00000
      6      14.5236      2.00000
      7      29.4099      0.00000
      8      32.9971      0.00000
      9      35.0865      0.00000
     10      36.6384      0.00000
     11      42.5011      0.00000
     12      42.5749      0.00000

 k-point    26 :      -0.1667    0.1667   -0.1667
  band No.  band energies     occupation 
      1       6.3502      2.00000
      2       8.5827      2.00000
      3      10.2269      2.00000
      4      11.5493      2.00000
      5      13.7307      2.00000
      6      14.5236      2.00000
      7      29.4099      0.00000
      8      32.9971      0.00000
      9      35.0867      0.00000
     10      36.6384      0.00000
     11      42.5013      0.00000
     12      42.5747      0.00000

 k-point    27 :       0.1667    0.3333    0.3333
  band No.  band energies     occupation 
      1       6.3502      2.00000
      2       8.5827      2.00000
      3      10.2269      2.00000
      4      11.5493      2.00000
      5      13.7308      2.00000
      6      14.5236      2.00000
      7      29.4097      0.00000
      8      32.9970      0.00000
      9      35.0867      0.00000
     10      36.6383      0.00000
     11      42.5012      0.00000
     12      42.5749      0.00000

 k-point    28 :       0.3333    0.0000    0.1667
  band No.  band energies     occupation 
      1       6.3503      2.00000
[...]
      1       7.7732      2.00000
      2       8.1408      2.00000
      3       9.4305      2.00000
      4      13.0393      2.00000
      5      13.7907      2.00000
      6      17.7441      0.00000
      7      27.2045      0.00000
      8      29.7615      0.00000
      9      32.3642      0.00000
     10      38.6671      0.00000
     11      39.5759      0.00000
     12      46.5043      0.00000

 k-point    90 :       0.1667   -0.1667   -0.3333
  band No.  band energies     occupation 
      1       7.7732      2.00000
      2       8.1408      2.00000
      3       9.4305      2.00000
      4      13.0393      2.00000
      5      13.7907      2.00000
      6      17.7441      0.00000
      7      27.2045      0.00000
      8      29.7615      0.00000
      9      32.3642      0.00000
     10      38.6671      0.00000
     11      39.5759      0.00000
     12      46.5020      0.00000

 k-point    91 :       0.3333    0.5000    0.1667
  band No.  band energies     occupation 
      1       7.7732      2.00000
      2       8.1408      2.00000
      3       9.4304      2.00000
      4      13.0394      2.00000
      5      13.7907      2.00000
      6      17.7440      0.00000
      7      27.2044      0.00000
      8      29.7614      0.00000
      9      32.3643      0.00000
     10      38.6671      0.00000
     11      39.5760      0.00000
     12      46.5020      0.00000

 k-point    92 :      -0.1667    0.1667   -0.3333
  band No.  band energies     occupation 
      1       7.7732      2.00000
      2       8.1408      2.00000
      3       9.4305      2.00000
      4      13.0393      2.00000
      5      13.7907      2.00000
      6      17.7441      0.00000
      7      27.2045      0.00000
      8      29.7615      0.00000
      9      32.3642      0.00000
     10      38.6671      0.00000
     11      39.5759      0.00000
     12      46.5021      0.00000

 k-point    93 :      -0.3333    0.1667   -0.1667
  band No.  band energies     occupation 
      1       7.7732      2.00000
      2       8.1408      2.00000
      3       9.4305      2.00000
      4      13.0393      2.00000
      5      13.7907      2.00000
      6      17.7441      0.00000
      7      27.2045      0.00000
      8      29.7615      0.00000
      9      32.3642      0.00000
     10      38.6671      0.00000
     11      39.5759      0.00000
     12      46.5019      0.00000

 k-point    94 :       0.1667    0.3333    0.5000
  band No.  band energies     occupation 
      1       7.7732      2.00000
      2       8.1408      2.00000
      3       9.4304      2.00000
      4      13.0394      2.00000
      5      13.7907      2.00000
      6      17.7440      0.00000
      7      27.2044      0.00000
      8      29.7614      0.00000
      9      32.3643      0.00000
     10      38.6671      0.00000
     11      39.5760      0.00000
     12      46.5020      0.00000

 k-point    95 :      -0.3333    0.3333    0.1667
  band No.  band energies     occupation 
      1       8.1389      2.00000
      2       8.1742      2.00000
      3       9.8078      2.00000
      4      12.3080      2.00000
      5      15.0307      2.00000
      6      22.0077      0.00000
      7      22.1216      0.00000
      8      29.3184      0.00000
      9      30.7918      0.00000
     10      37.2109      0.00000
     11      42.2487      0.00000
     12      47.0620      0.00000

 k-point    96 :       0.1667   -0.3333    0.3333
  band No.  band energies     occupation 
      1       8.1389      2.00000
      2       8.1742      2.00000
      3       9.8078      2.00000
      4      12.3080      2.00000
      5      15.0307      2.00000
      6      22.0077      0.00000
      7      22.1216      0.00000
      8      29.3184      0.00000
      9      30.7918      0.00000
     10      37.2109      0.00000
     11      42.2487      0.00000
     12      47.0620      0.00000

 k-point    97 :       0.3333    0.1667   -0.3333
  band No.  band energies     occupation 
      1       8.1389      2.00000
      2       8.1742      2.00000
      3       9.8078      2.00000
      4      12.3080      2.00000
      5      15.0307      2.00000
      6      22.0078      0.00000
      7      22.1216      0.00000
      8      29.3184      0.00000
      9      30.7918      0.00000
     10      37.2109      0.00000
     11      42.2487      0.00000
     12      47.0617      0.00000

 k-point    98 :      -0.3333    0.3333    0.5000
  band No.  band energies     occupation 
      1       8.1389      2.00000
      2       8.1743      2.00000
      3       9.8077      2.00000
      4      12.3080      2.00000
      5      15.0307      2.00000
      6      22.0076      0.00000
      7      22.1216      0.00000
      8      29.3185      0.00000
      9      30.7919      0.00000
     10      37.2110      0.00000
     11      42.2486      0.00000
     12      47.0628      0.00000

 k-point    99 :       0.1667    0.5000   -0.1667
  band No.  band energies     occupation 
      1       8.1390      2.00000
      2       8.1743      2.00000
      3       9.8077      2.00000
      4      12.3079      2.00000
      5      15.0307      2.00000
      6      22.0077      0.00000
      7      22.1217      0.00000
      8      29.3185      0.00000
      9      30.7918      0.00000
     10      37.2109      0.00000
     11      42.2486      0.00000
     12      47.0621      0.00000

 k-point   100 :       0.3333   -0.1667   -0.3333
  band No.  band energies     occupation 
      1       8.1389      2.00000
      2       8.1742      2.00000
      3       9.8078      2.00000
      4      12.3080      2.00000
      5      15.0307      2.00000
      6      22.0077      0.00000
      7      22.1216      0.00000
      8      29.3184      0.00000
      9      30.7918      0.00000
     10      37.2109      0.00000
     11      42.2487      0.00000
     12      47.0619      0.00000

 k-point   101 :       0.5000   -0.3333    0.3333
  band No.  band energies     occupation 
      1       8.1389      2.00000
      2       8.1743      2.00000
      3       9.8077      2.00000
      4      12.3080      2.00000
      5      15.0306      2.00000
      6      22.0076      0.00000
      7      22.1216      0.00000
      8      29.3186      0.00000
      9      30.7919      0.00000
     10      37.2110      0.00000
     11      42.2486      0.00000
     12      47.0618      0.00000

 k-point   102 :      -0.1667    0.1667    0.5000
  band No.  band energies     occupation 
      1       8.1390      2.00000
      2       8.1743      2.00000
      3       9.8077      2.00000
      4      12.3079      2.00000
      5      15.0307      2.00000
      6      22.0077      0.00000
      7      22.1217      0.00000
      8      29.3185      0.00000
      9      30.7918      0.00000
     10      37.2109      0.00000
     11      42.2486      0.00000
     12      47.0619      0.00000

 k-point   103 :      -0.3333    0.3333   -0.1667
  band No.  band energies     occupation 
      1       8.1389      2.00000
      2       8.1742      2.00000
      3       9.8078      2.00000
      4      12.3080      2.00000
      5      15.0307      2.00000
      6      22.0077      0.00000
      7      22.1216      0.00000
      8      29.3184      0.00000
      9      30.7918      0.00000
     10      37.2109      0.00000
     11      42.2487      0.00000
     12      47.0627      0.00000

 k-point   104 :       0.3333    0.5000   -0.3333
  band No.  band energies     occupation 
      1       8.1389      2.00000
      2       8.1743      2.00000
      3       9.8077      2.00000
      4      12.3080      2.00000
      5      15.0307      2.00000
      6      22.0076      0.00000
      7      22.1216      0.00000
      8      29.3186      0.00000
      9      30.7919      0.00000
     10      37.2110      0.00000
     11      42.2486      0.00000
     12      47.0621      0.00000

 k-point   105 :       0.5000   -0.1667    0.1667
  band No.  band energies     occupation 
      1       8.1390      2.00000
      2       8.1743      2.00000
      3       9.8077      2.00000
      4      12.3079      2.00000
      5      15.0307      2.00000
      6      22.0077      0.00000
      7      22.1217      0.00000
      8      29.3185      0.00000
      9      30.7918      0.00000
     10      37.2109      0.00000
     11      42.2486      0.00000
     12      47.0615      0.00000

 k-point   106 :      -0.1667   -0.3333    0.3333
  band No.  band energies     occupation 
      1       8.1389      2.00000
      2       8.1742      2.00000
      3       9.8078      2.00000
      4      12.3080      2.00000
      5      15.0307      2.00000
      6      22.0078      0.00000
      7      22.1216      0.00000
      8      29.3184      0.00000
      9      30.7918      0.00000
     10      37.2109      0.00000
     11      42.2487      0.00000
     12      47.0618      0.00000

 k-point   107 :      -0.3333    0.5000    0.1667
  band No.  band energies     occupation 
      1       7.0369      2.00000
      2       7.6564      2.00000
      3      11.1559      2.00000
      4      13.2863      2.00000
      5      15.9386      0.00000
      6      22.0950      0.00000
      7      24.0572      0.00000
      8      26.2268      0.00000
      9      28.9194      0.00000
     10      40.9175      0.00000
     11      42.2921      0.00000
     12      42.9023      0.00000

 k-point   108 :       0.1667   -0.3333    0.5000
  band No.  band energies     occupation 
      1       7.0369      2.00000
      2       7.6564      2.00000
      3      11.1559      2.00000
      4      13.2863      2.00000
      5      15.9386      0.00000
      6      22.0950      0.00000
      7      24.0572      0.00000
      8      26.2268      0.00000
      9      28.9194      0.00000
     10      40.9175      0.00000
     11      42.2921      0.00000
     12      42.9023      0.00000

 k-point   109 :       0.5000    0.1667   -0.3333
  band No.  band energies     occupation 
      1       7.0369      2.00000
      2       7.6564      2.00000
      3      11.1559      2.00000
      4      13.2863      2.00000
      5      15.9386      0.00000
      6      22.0950      0.00000
      7      24.0572      0.00000
      8      26.2268      0.00000
      9      28.9194      0.00000
     10      40.9175      0.00000
     11      42.2921      0.00000
     12      42.9023      0.00000

 k-point   110 :       0.5000    0.3333   -0.1667
  band No.  band energies     occupation 
      1       7.0369      2.00000
      2       7.6564      2.00000
      3      11.1559      2.00000
      4      13.2863      2.00000
      5      15.9386      0.00000
      6      22.0950      0.00000
      7      24.0572      0.00000
      8      26.2268      0.00000
      9      28.9194      0.00000
     10      40.9175      0.00000
     11      42.2921      0.00000
     12      42.9023      0.00000

 k-point   111 :      -0.3333    0.1667    0.5000
  band No.  band energies     occupation 
      1       7.0369      2.00000
      2       7.6564      2.00000
      3      11.1559      2.00000
      4      13.2863      2.00000
      5      15.9386      0.00000
      6      22.0950      0.00000
      7      24.0572      0.00000
      8      26.2268      0.00000
      9      28.9194      0.00000
     10      40.9175      0.00000
     11      42.2921      0.00000
     12      42.9023      0.00000

 k-point   112 :       0.1667    0.5000   -0.3333
  band No.  band energies     occupation 
      1       7.0369      2.00000
      2       7.6564      2.00000
      3      11.1559      2.00000
      4      13.2863      2.00000
      5      15.9386      0.00000
      6      22.0950      0.00000
      7      24.0572      0.00000
      8      26.2268      0.00000
      9      28.9194      0.00000
     10      40.9175      0.00000
     11      42.2921      0.00000
     12      42.9023      0.00000


--------------------------------------------------------------------------------------------------------


 soft charge-density along one line, spin component            1
         0         1         2         3         4         5         6         7         8         9
 total charge-density along one line
 
 pseudopotential strength for first ion, spin component:            1
 -1.162   0.000  -0.016   0.000   0.009  -1.413   0.000  -0.016
  0.000  -1.162   0.000  -0.019  -0.000   0.000  -1.413   0.000
 -0.016   0.000  -1.179   0.000  -0.006  -0.016   0.000  -1.429
  0.000  -0.019   0.000  -1.175   0.000   0.000  -0.018   0.000
  0.009  -0.000  -0.006   0.000  -1.185   0.009  -0.000  -0.006
 -1.413   0.000  -0.016   0.000   0.009  -1.645   0.000  -0.016
  0.000  -1.413   0.000  -0.018  -0.000   0.000  -1.644   0.000
 -0.016   0.000  -1.429   0.000  -0.006  -0.016   0.000  -1.660
  0.000  -0.018   0.000  -1.426   0.000   0.000  -0.018   0.000
  0.009  -0.000  -0.006   0.000  -1.436   0.009  -0.000  -0.006
 -0.000  -0.000  -0.000  -0.000  -0.000  -0.000  -0.000  -0.000
 -0.000  -0.000  -0.000  -0.000  -0.000  -0.000  -0.000  -0.000
  0.000   0.000   0.000  -0.000   0.000   0.000   0.000   0.000
 -0.000  -0.000   0.000   0.000  -0.000  -0.000  -0.000   0.000
 -0.000  -0.000  -0.000   0.000   0.000  -0.000  -0.000  -0.000
  0.000   0.000   0.000  -0.000   0.000   0.000   0.000   0.000
 -0.000  -0.000   0.000   0.000   0.000  -0.000  -0.000   0.000
 -0.000  -0.000  -0.000   0.000   0.000  -0.000  -0.000  -0.000
 total augmentation occupancy for first ion, spin component:            1
  6.942   0.000  -0.299   0.000   0.173  -5.720  -0.000  -0.013  -0.000   0.008   0.000  -0.000  -0.000   0.000   0.000   0.000
  0.000   6.942  -0.000  -0.345  -0.000  -0.000  -5.720   0.000  -0.015   0.000   0.000  -0.000   0.000  -0.000  -0.000  -0.000
 -0.299  -0.000   6.637  -0.000  -0.106  -0.013   0.000  -5.733   0.000  -0.005   0.000   0.000   0.000   0.000   0.000  -0.000
  0.000  -0.345  -0.000   6.698   0.000  -0.000  -0.015   0.000  -5.731  -0.000   0.000  -0.000   0.000   0.000  -0.000  -0.000
  0.173  -0.000  -0.106   0.000   6.515   0.008   0.000  -0.005  -0.000  -5.739   0.000   0.000  -0.000   0.000  -0.000   0.000
 -5.720  -0.000  -0.013  -0.000   0.008   6.291   0.000   0.262   0.000  -0.151  -0.000  -0.000   0.000  -0.000  -0.000  -0.000
 -0.000  -5.720   0.000  -0.015   0.000   0.000   6.291  -0.000   0.303  -0.000  -0.000   0.000  -0.000   0.000   0.000   0.000
 -0.013   0.000  -5.733   0.000  -0.005   0.262  -0.000   6.559  -0.000   0.093  -0.000  -0.000  -0.000  -0.000  -0.000   0.000
 -0.000  -0.015   0.000  -5.731  -0.000   0.000   0.303  -0.000   6.506   0.000  -0.000   0.000  -0.000  -0.000   0.000   0.000
  0.008   0.000  -0.005  -0.000  -5.739  -0.151  -0.000   0.093   0.000   6.666   0.000  -0.000   0.000  -0.000   0.000  -0.000
  0.000   0.000   0.000   0.000   0.000  -0.000  -0.000  -0.000  -0.000   0.000   3.682  -1.007   0.000   0.000   0.000  -0.000
 -0.000  -0.000   0.000  -0.000   0.000  -0.000   0.000  -0.000   0.000  -0.000  -1.007   0.302   0.000  -0.000   0.000   0.000
 -0.000   0.000   0.000   0.000  -0.000   0.000  -0.000  -0.000  -0.000   0.000   0.000   0.000   0.456  -0.000  -0.000  -0.026
  0.000  -0.000   0.000   0.000   0.000  -0.000   0.000  -0.000  -0.000  -0.000   0.000  -0.000  -0.000   0.456  -0.000  -0.000
  0.000  -0.000   0.000  -0.000  -0.000  -0.000   0.000  -0.000   0.000   0.000   0.000   0.000  -0.000  -0.000   0.456  -0.000
  0.000  -0.000  -0.000  -0.000   0.000  -0.000   0.000   0.000   0.000  -0.000  -0.000   0.000  -0.026  -0.000  -0.000   0.002
 -0.000   0.000  -0.000  -0.000  -0.000   0.000  -0.000   0.000   0.000   0.000  -0.000   0.000   0.000  -0.026   0.000  -0.000
 -0.000   0.000  -0.000   0.000   0.000   0.000  -0.000   0.000  -0.000  -0.000  -0.000   0.000   0.000   0.000  -0.026  -0.000


------------------------ aborting loop because EDIFF is reached ----------------------------------------





 total charge

# of ion       s       p       d       tot
------------------------------------------
    1        0.763   0.892   8.251   9.905
 
    CHARGE:  cpu time    0.0081: real time    0.0081
    FORLOC:  cpu time    0.0001: real time    0.0001
    FORNL :  cpu time    0.0178: real time    0.0178
    FORCOR:  cpu time    0.0066: real time    0.0066
    FORHAR:  cpu time    0.0008: real time    0.0008
    MIXING:  cpu time    0.0003: real time    0.0003
    OFIELD:  cpu time    0.0000: real time    0.0000

 VOLUME and BASIS-vectors are now :
 -----------------------------------------------------------------------------
  energy-cutoff  :      420.00
  volume of cell :       12.56
      direct lattice vectors                 reciprocal lattice vectors
     2.259551000  0.000004000  1.304566000     0.442566528 -0.156471683 -0.000000778
     0.753189000  2.130323000  1.304566000    -0.000000415  0.469412972 -0.000000720
     0.000006000  0.000004000  2.609111000    -0.221284837 -0.156471904  0.383273059

  length of vectors
     2.609111567  2.609111382  2.609111000     0.469412952  0.469412972  0.469413116


 FORCES acting on ions
    electron-ion (+dipol)            ewald-force                    non-local-force                 convergence-correction
 -----------------------------------------------------------------------------------------------
   0.354E-05 -.537E-05 0.146E-04   -.426E-14 -.285E-15 0.117E-14   0.184E-05 0.737E-06 0.111E-04   -.212E-05 0.690E-05 -.183E-04
 -----------------------------------------------------------------------------------------------
   0.354E-05 -.537E-05 0.146E-04   -.426E-14 -.285E-15 0.117E-14   0.184E-05 0.737E-06 0.111E-04   -.212E-05 0.690E-05 -.183E-04
 
 
 POSITION                                       TOTAL-FORCE (eV/Angst)
 -----------------------------------------------------------------------------------
      0.00000      0.00000      0.00000         0.000003      0.000002      0.000007
 -----------------------------------------------------------------------------------
    total drift:                                0.000003      0.000002      0.000007


--------------------------------------------------------------------------------------------------------



  FREE ENERGIE OF THE ION-ELECTRON SYSTEM (eV)
  ---------------------------------------------------
  free  energy   TOTEN  =        -4.78586840 eV

  energy  without entropy=       -4.78439109  energy(sigma->0) =       -4.78512975
 


--------------------------------------------------------------------------------------------------------


    POTLOK:  cpu time    0.0067: real time    0.0067


--------------------------------------------------------------------------------------------------------


     LOOP+:  cpu time    4.9821: real time    5.0138
    4ORBIT:  cpu time    0.0000: real time    0.0000



 total charge

# of ion       s       p       d       tot
------------------------------------------
    1        0.763   0.892   8.251   9.905
 

 total amount of memory used by VASP MPI-rank0    31776. kBytes
=======================================================================

   base      :      30000. kBytes
   nonl-proj :       1097. kBytes
   fftplans  :         80. kBytes
   grid      :        111. kBytes
   one-center:         15. kBytes
   wavefun   :        473. kBytes
 
  
  
 General timing and accounting informations for this job:
 ========================================================
  
                  Total CPU time used (sec):        6.080
                            User time (sec):        5.864
                          System time (sec):        0.216
                         Elapsed time (sec):       11.037
  
                   Maximum memory used (kb):       53264.
                   Average memory used (kb):          N/A
  
                          Minor page faults:         6306
                          Major page faults:          266
                 Voluntary context switches:         5376
