<?xml version="1.0" encoding="ISO-8859-1"?>
<modeling>
 <generator>
  <i name="program" type="string">vasp </i>
  <i name="version" type="string">6.2.0  </i>
  <i name="subversion" type="string">18Jan21 (build Feb  1 2022 01:28:57) complex                          parallel </i>
  <i name="platform" type="string">LinuxPGI </i>
  <i name="date" type="string">2022 05 18 </i>
  <i name="time" type="string">19:39:31 </i>
 </generator>
 <incar>
  <i type="string" name="PREC">Normal</i>
  <i type="string" name="ALGO">38</i>
  <i type="int" name="ISPIN">     1</i>
  <i type="int" name="NELM">    60</i>
  <i type="int" name="NELMIN">     4</i>
  <i type="int" name="IBRION">     2</i>
  <i name="EDIFF">      0.00010000</i>
  <i name="EDIFFG">     -0.03000000</i>
  <i type="int" name="NSW">     0</i>
  <i type="int" name="ISIF">     0</i>
  <i type="int" name="ISYM">     0</i>
  <i name="SYMPREC">      0.00001000</i>
  <i name="ENCUT">    420.00000000</i>
  <i type="logical" name="LREAL"> F  </i>
  <i type="int" name="ISMEAR">     0</i>
  <i name="SIGMA">      0.05000000</i>
  <i type="logical" name="LWAVE"> F  </i>
  <i type="logical" name="LVTOT"> F  </i>
  <i type="int" name="LORBIT">    11</i>
  <i type="logical" name="LASPH"> F  </i>
  <i type="string" name="GGA">RP</i>
 </incar>
 <primitive_cell>
  <structure name="primitive_cell" >
   <crystal>
    <varray name="basis" >
     <v>       2.25955100       0.00000400       1.30456600 </v>
     <v>       0.75318900       2.13032300       1.30456600 </v>
     <v>       0.00000600       0.00000400       2.60911100 </v>
    </varray>
    <i name="volume">     12.55911508 </i>
    <varray name="rec_basis" >
     <v>       0.44256653      -0.15647168      -0.00000078 </v>
     <v>      -0.00000042       0.46941297      -0.00000072 </v>
     <v>      -0.22128484      -0.15647190       0.38327306 </v>
    </varray>
   </crystal>
   <varray name="positions" >
    <v>       0.00000000       0.00000000       0.00000000 </v>
   </varray>
  </structure>
  <varray name="primitive_index" >
   <v type="int" >        1 </v>
  </varray>
 </primitive_cell>
 <kpoints>
  <generation param="Gamma">
   <v type="int" name="divisions">       6        6        6 </v>
   <v name="usershift">      0.00000000       0.00000000       0.00000000 </v>
   <v name="genvec1">      0.16666667      -0.00000000       0.00000000 </v>
   <v name="genvec2">      0.00000000       0.16666667       0.00000000 </v>
   <v name="genvec3">     -0.00000000      -0.00000000       0.16666667 </v>
   <v name="shift">      0.00000000       0.00000000       0.00000000 </v>
  </generation>
  <varray name="kpointlist" >
   <v>       0.00000000       0.00000000       0.00000000 </v>
   <v>       0.16666667       0.00000000       0.00000000 </v>
   <v>       0.00000000       0.16666667       0.00000000 </v>
   <v>       0.00000000       0.00000000       0.16666667 </v>
   <v>       0.16666667       0.16666667       0.16666667 </v>
   <v>       0.33333333       0.00000000       0.00000000 </v>
   <v>       0.00000000       0.33333333       0.00000000 </v>
   <v>       0.00000000       0.00000000       0.33333333 </v>
   <v>       0.33333333       0.33333333       0.33333333 </v>
   <v>       0.50000000       0.00000000       0.00000000 </v>
   <v>       0.00000000       0.50000000       0.00000000 </v>
   <v>       0.00000000       0.00000000       0.50000000 </v>
   <v>       0.50000000       0.50000000       0.50000000 </v>
   <v>       0.16666667       0.16666667       0.00000000 </v>
   <v>       0.00000000       0.16666667       0.16666667 </v>
   <v>       0.16666667       0.00000000       0.16666667 </v>
   <v>       0.33333333       0.16666667       0.00000000 </v>
   <v>       0.00000000       0.33333333       0.16666667 </v>
   <v>       0.16666667       0.00000000       0.33333333 </v>
   <v>       0.16666667       0.16666667      -0.16666667 </v>
   <v>       0.33333333       0.16666667       0.33333333 </v>
   <v>       0.16666667       0.33333333       0.00000000 </v>
   <v>       0.16666667      -0.16666667      -0.16666667 </v>
   <v>       0.33333333       0.33333333       0.16666667 </v>
   <v>       0.00000000       0.16666667       0.33333333 </v>
   <v>      -0.16666667       0.16666667      -0.16666667 </v>
   <v>       0.16666667       0.33333333       0.33333333 </v>
   <v>       0.33333333       0.00000000       0.16666667 </v>
   <v>       0.50000000       0.16666667       0.00000000 </v>
   <v>       0.00000000       0.50000000       0.16666667 </v>
   <v>       0.16666667       0.00000000       0.50000000 </v>
   <v>       0.16666667       0.16666667      -0.33333333 </v>
   <v>       0.50000000       0.33333333       0.50000000 </v>
   <v>       0.16666667       0.50000000       0.00000000 </v>
   <v>       0.33333333      -0.16666667      -0.16666667 </v>
   <v>       0.50000000       0.50000000       0.33333333 </v>
   <v>       0.00000000       0.16666667       0.50000000 </v>
   <v>      -0.16666667       0.33333333      -0.16666667 </v>
   <v>       0.33333333       0.50000000       0.50000000 </v>
   <v>       0.50000000       0.00000000       0.16666667 </v>
   <v>      -0.33333333       0.16666667       0.00000000 </v>
   <v>       0.00000000      -0.33333333       0.16666667 </v>
   <v>       0.16666667       0.00000000      -0.33333333 </v>
   <v>       0.16666667       0.16666667       0.50000000 </v>
   <v>      -0.33333333       0.50000000      -0.33333333 </v>
   <v>       0.16666667      -0.33333333       0.00000000 </v>
   <v>       0.50000000      -0.16666667      -0.16666667 </v>
   <v>      -0.33333333      -0.33333333       0.50000000 </v>
   <v>       0.00000000       0.16666667      -0.33333333 </v>
   <v>      -0.16666667       0.50000000      -0.16666667 </v>
   <v>       0.50000000      -0.33333333      -0.33333333 </v>
   <v>      -0.33333333       0.00000000       0.16666667 </v>
   <v>      -0.16666667       0.16666667       0.00000000 </v>
   <v>       0.00000000      -0.16666667       0.16666667 </v>
   <v>       0.16666667       0.00000000      -0.16666667 </v>
   <v>       0.16666667       0.16666667       0.33333333 </v>
   <v>      -0.16666667      -0.33333333      -0.16666667 </v>
   <v>      -0.33333333      -0.16666667      -0.16666667 </v>
   <v>       0.33333333       0.33333333       0.00000000 </v>
   <v>       0.00000000       0.33333333       0.33333333 </v>
   <v>       0.33333333       0.00000000       0.33333333 </v>
   <v>       0.50000000       0.33333333       0.00000000 </v>
   <v>       0.00000000       0.50000000       0.33333333 </v>
   <v>       0.33333333       0.00000000       0.50000000 </v>
   <v>       0.33333333       0.33333333      -0.16666667 </v>
   <v>       0.50000000       0.16666667       0.50000000 </v>
   <v>       0.33333333       0.50000000       0.00000000 </v>
   <v>       0.16666667      -0.33333333      -0.33333333 </v>
   <v>       0.50000000       0.50000000       0.16666667 </v>
   <v>       0.00000000       0.33333333       0.50000000 </v>
   <v>      -0.33333333       0.16666667      -0.33333333 </v>
   <v>       0.16666667       0.50000000       0.50000000 </v>
   <v>       0.50000000       0.00000000       0.33333333 </v>
   <v>      -0.33333333       0.33333333       0.00000000 </v>
   <v>       0.00000000      -0.33333333       0.33333333 </v>
   <v>       0.33333333       0.00000000      -0.33333333 </v>
   <v>       0.33333333       0.33333333      -0.33333333 </v>
   <v>      -0.33333333       0.33333333      -0.33333333 </v>
   <v>       0.33333333      -0.33333333      -0.33333333 </v>
   <v>       0.50000000       0.50000000       0.00000000 </v>
   <v>       0.00000000       0.50000000       0.50000000 </v>
   <v>       0.50000000       0.00000000       0.50000000 </v>
   <v>       0.50000000       0.33333333       0.16666667 </v>
   <v>       0.16666667       0.50000000       0.33333333 </v>
   <v>       0.33333333       0.16666667       0.50000000 </v>
   <v>       0.33333333       0.16666667      -0.16666667 </v>
   <v>       0.50000000       0.16666667       0.33333333 </v>
   <v>       0.16666667      -0.33333333      -0.16666667 </v>
   <v>       0.16666667       0.33333333      -0.16666667 </v>
   <v>       0.16666667      -0.16666667      -0.33333333 </v>
   <v>       0.33333333       0.50000000       0.16666667 </v>
   <v>      -0.16666667       0.16666667      -0.33333333 </v>
   <v>      -0.33333333       0.16666667      -0.16666667 </v>
   <v>       0.16666667       0.33333333       0.50000000 </v>
   <v>      -0.33333333       0.33333333       0.16666667 </v>
   <v>       0.16666667      -0.33333333       0.33333333 </v>
   <v>       0.33333333       0.16666667      -0.33333333 </v>
   <v>      -0.33333333       0.33333333       0.50000000 </v>
   <v>       0.16666667       0.50000000      -0.16666667 </v>
   <v>       0.33333333      -0.16666667      -0.33333333 </v>
   <v>       0.50000000      -0.33333333       0.33333333 </v>
   <v>      -0.16666667       0.16666667       0.50000000 </v>
   <v>      -0.33333333       0.33333333      -0.16666667 </v>
   <v>       0.33333333       0.50000000      -0.33333333 </v>
   <v>       0.50000000      -0.16666667       0.16666667 </v>
   <v>      -0.16666667      -0.33333333       0.33333333 </v>
   <v>      -0.33333333       0.50000000       0.16666667 </v>
   <v>       0.16666667      -0.33333333       0.50000000 </v>
   <v>       0.50000000       0.16666667      -0.33333333 </v>
   <v>       0.50000000       0.33333333      -0.16666667 </v>
   <v>      -0.33333333       0.16666667       0.50000000 </v>
   <v>       0.16666667       0.50000000      -0.33333333 </v>
  </varray>
  <varray name="weights" >
   <v>       0.00462963 </v>
   <v>       0.00925926 </v>
   <v>       0.00925926 </v>
   <v>       0.00925926 </v>
   <v>       0.00925926 </v>
   <v>       0.00925926 </v>
   <v>       0.00925926 </v>
   <v>       0.00925926 </v>
   <v>       0.00925926 </v>
   <v>       0.00462963 </v>
   <v>       0.00462963 </v>
   <v>       0.00462963 </v>
   <v>       0.00462963 </v>
   <v>       0.00925926 </v>
   <v>       0.00925926 </v>
   <v>       0.00925926 </v>
   <v>       0.00925926 </v>
   <v>       0.00925926 </v>
   <v>       0.00925926 </v>
   <v>       0.00925926 </v>
   <v>       0.00925926 </v>
   <v>       0.00925926 </v>
   <v>       0.00925926 </v>
   <v>       0.00925926 </v>
   <v>       0.00925926 </v>
   <v>       0.00925926 </v>
   <v>       0.00925926 </v>
   <v>       0.00925926 </v>
   <v>       0.00925926 </v>
   <v>       0.00925926 </v>
   <v>       0.00925926 </v>
   <v>       0.00925926 </v>
   <v>       0.00925926 </v>
   <v>       0.00925926 </v>
   <v>       0.00925926 </v>
   <v>       0.00925926 </v>
   <v>       0.00925926 </v>
   <v>       0.00925926 </v>
   <v>       0.00925926 </v>
   <v>       0.00925926 </v>
   <v>       0.00925926 </v>
   <v>       0.00925926 </v>
   <v>       0.00925926 </v>
   <v>       0.00925926 </v>
   <v>       0.00925926 </v>
   <v>       0.00925926 </v>
   <v>       0.00925926 </v>
   <v>       0.00925926 </v>
   <v>       0.00925926 </v>
   <v>       0.00925926 </v>
   <v>       0.00925926 </v>
   <v>       0.00925926 </v>
   <v>       0.00925926 </v>
   <v>       0.00925926 </v>
   <v>       0.00925926 </v>
   <v>       0.00925926 </v>
   <v>       0.00925926 </v>
   <v>       0.00925926 </v>
   <v>       0.00925926 </v>
   <v>       0.00925926 </v>
   <v>       0.00925926 </v>
   <v>       0.00925926 </v>
   <v>       0.00925926 </v>
   <v>       0.00925926 </v>
   <v>       0.00925926 </v>
   <v>       0.00925926 </v>
   <v>       0.00925926 </v>
   <v>       0.00925926 </v>
   <v>       0.00925926 </v>
   <v>       0.00925926 </v>
   <v>       0.00925926 </v>
   <v>       0.00925926 </v>
   <v>       0.00925926 </v>
   <v>       0.00925926 </v>
   <v>       0.00925926 </v>
   <v>       0.00925926 </v>
   <v>       0.00925926 </v>
   <v>       0.00925926 </v>
   <v>       0.00925926 </v>
   <v>       0.00462963 </v>
   <v>       0.00462963 </v>
   <v>       0.00462963 </v>
   <v>       0.00925926 </v>
   <v>       0.00925926 </v>
   <v>       0.00925926 </v>
   <v>       0.00925926 </v>
   <v>       0.00925926 </v>
   <v>       0.00925926 </v>
   <v>       0.00925926 </v>
   <v>       0.00925926 </v>
   <v>       0.00925926 </v>
   <v>       0.00925926 </v>
   <v>       0.00925926 </v>
   <v>       0.00925926 </v>
   <v>       0.00925926 </v>
   <v>       0.00925926 </v>
   <v>       0.00925926 </v>
   <v>       0.00925926 </v>
   <v>       0.00925926 </v>
   <v>       0.00925926 </v>
   <v>       0.00925926 </v>
   <v>       0.00925926 </v>
   <v>       0.00925926 </v>
   <v>       0.00925926 </v>
   <v>       0.00925926 </v>
   <v>       0.00925926 </v>
   <v>       0.00925926 </v>
   <v>       0.00925926 </v>
   <v>       0.00925926 </v>
   <v>       0.00925926 </v>
   <v>       0.00925926 </v>
   <v>       0.00925926 </v>
  </varray>
 </kpoints>
 <parameters>
  <separator name="general" >
   <i type="string" name="SYSTEM">unknown system</i>
   <i type="logical" name="LCOMPAT"> F  </i>
  </separator>
  <separator name="electronic" >
   <i type="string" name="PREC">normal</i>
   <i name="ENMAX">    420.00000000</i>
   <i name="ENAUG">    358.96600000</i>
   <i name="EDIFF">      0.00010000</i>
   <i type="int" name="IALGO">    38</i>
   <i type="int" name="IWAVPR">    10</i>
   <i type="int" name="NBANDS">    12</i>
   <i type="int" name="NBANDSLOW">    -1</i>
   <i type="int" name="NBANDSHIGH">    -1</i>
   <i name="NELECT">     10.00000000</i>
   <i type="int" name="TURBO">     0</i>
   <i type="int" name="IRESTART">     0</i>
   <i type="int" name="NREBOOT">     0</i>
   <i type="int" name="NMIN">     0</i>
   <i name="EREF">      0.00000000</i>
   <separator name="electronic smearing" >
    <i type="int" name="ISMEAR">     0</i>
    <i name="SIGMA">      0.05000000</i>
    <i name="KSPACING">      0.50000000</i>
    <i type="logical" name="KGAMMA"> T  </i>
    <i type="logical" name="KBLOWUP"> T  </i>
   </separator>
   <separator name="electronic projectors" >
    <i type="logical" name="LREAL"> F  </i>
    <v name="ROPT">      0.00000000</v>
    <i type="int" name="LMAXPAW">  -100</i>
    <i type="int" name="LMAXMIX">     2</i>
    <i type="logical" name="NLSPLINE"> F  </i>
   </separator>
   <separator name="electronic startup" >
    <i type="int" name="ISTART">     0</i>
    <i type="int" name="ICHARG">     2</i>
    <i type="int" name="INIWAV">     1</i>
   </separator>
   <separator name="electronic spin" >
    <i type="int" name="ISPIN">     1</i>
    <i type="logical" name="LNONCOLLINEAR"> F  </i>
    <v name="MAGMOM">      1.00000000</v>
    <i name="NUPDOWN">     -1.00000000</i>
    <i type="logical" name="LSORBIT"> F  </i>
    <v name="SAXIS">      0.00000000      0.00000000      1.00000000</v>
    <i type="logical" name="LSPIRAL"> F  </i>
    <v name="QSPIRAL">      0.00000000      0.00000000      0.00000000</v>
    <i type="logical" name="LZEROZ"> F  </i>
   </separator>
   <separator name="electronic exchange-correlation" >
    <i type="logical" name="LASPH"> F  </i>
    <i type="logical" name="LMETAGGA"> F  </i>
   </separator>
   <separator name="electronic convergence" >
    <i type="int" name="NELM">    60</i>
    <i type="int" name="NELMDL">    -5</i>
    <i type="int" name="NELMIN">     4</i>
    <i name="ENINI">    420.00000000</i>
    <separator name="electronic convergence detail" >
     <i type="logical" name="LDIAG"> T  </i>
     <i type="logical" name="LSUBROT"> F  </i>
     <i name="WEIMIN">      0.00000000</i>
     <i name="EBREAK">      0.00000208</i>
     <i name="DEPER">      0.30000000</i>
     <i type="int" name="NRMM">     4</i>
     <i name="TIME">      0.40000000</i>
    </separator>
   </separator>
   <separator name="electronic mixer" >
    <i name="AMIX">      0.40000000</i>
    <i name="BMIX">      1.00000000</i>
    <i name="AMIN">      0.10000000</i>
    <i name="AMIX_MAG">      1.60000000</i>
    <i name="BMIX_MAG">      1.00000000</i>
    <separator name="electronic mixer details" >
     <i type="int" name="IMIX">     4</i>
     <i type="logical" name="MIXFIRST"> F  </i>
     <i type="int" name="MAXMIX">   -45</i>
     <i name="WC">    100.00000000</i>
     <i type="int" name="INIMIX">     1</i>
     <i type="int" name="MIXPRE">     1</i>
     <i type="int" name="MREMOVE">     5</i>
    </separator>
   </separator>
   <separator name="electronic dipolcorrection" >
    <i type="logical" name="LDIPOL"> F  </i>
    <i type="logical" name="LMONO"> F  </i>
    <i type="int" name="IDIPOL">     0</i>
    <i name="EPSILON">      1.00000000</i>
    <v name="DIPOL">   -100.00000000   -100.00000000   -100.00000000</v>
    <i name="EFIELD">      0.00000000</i>
   </separator>
  </separator>
  <separator name="grids" >
   <i type="int" name="NGX">    14</i>
   <i type="int" name="NGY">    14</i>
   <i type="int" name="NGZ">    14</i>
   <i type="int" name="NGXF">    28</i>
   <i type="int" name="NGYF">    28</i>
   <i type="int" name="NGZF">    28</i>
   <i type="logical" name="ADDGRID"> F  </i>
  </separator>
  <separator name="ionic" >
   <i type="int" name="NSW">     0</i>
   <i type="int" name="IBRION">    -1</i>
   <i type="int" name="MDALGO">     0</i>
   <i type="int" name="ISIF">     0</i>
   <i name="PSTRESS">      0.00000000</i>
   <i name="EDIFFG">     -0.03000000</i>
   <i type="int" name="NFREE">     1</i>
   <i name="POTIM">      0.50000000</i>
   <i name="SMASS">     -3.00000000</i>
   <i name="SCALEE">      1.00000000</i>
  </separator>
  <separator name="ionic md" >
   <i name="TEBEG">      0.00010000</i>
   <i name="TEEND">      0.00010000</i>
   <i type="int" name="NBLOCK">     1</i>
   <i type="int" name="KBLOCK">     1</i>
   <i type="int" name="NPACO">   256</i>
   <i name="APACO">     16.00000000</i>
  </separator>
  <separator name="symmetry" >
   <i type="int" name="ISYM">     0</i>
   <i name="SYMPREC">      0.00001000</i>
  </separator>
  <separator name="dos" >
   <i type="int" name="LORBIT">    11</i>
   <v name="RWIGS">     -1.00000000</v>
   <i type="int" name="NEDOS">   301</i>
   <i name="EMIN">     10.00000000</i>
   <i name="EMAX">    -10.00000000</i>
   <i name="EFERMI">      0.00000000</i>
  </separator>
  <separator name="writing" >
   <i type="int" name="NWRITE">     2</i>
   <i type="logical" name="LWAVE"> F  </i>
   <i type="logical" name="LDOWNSAMPLE"> F  </i>
   <i type="logical" name="LCHARG"> T  </i>
   <i type="logical" name="LPARD"> F  </i>
   <i type="logical" name="LVTOT"> F  </i>
   <i type="logical" name="LVHAR"> F  </i>
   <i type="logical" name="LELF"> F  </i>
   <i type="logical" name="LOPTICS"> F  </i>
   <v name="STM">      0.00000000      0.00000000      0.00000000      0.00000000      0.00000000      0.00000000      0.00000000</v>
  </separator>
  <separator name="performance" >
   <i type="int" name="NPAR">     4</i>
   <i type="int" name="NSIM">     4</i>
   <i type="int" name="NBLK">    -1</i>
   <i type="logical" name="LPLANE"> T  </i>
   <i type="logical" name="LSCALAPACK"> T  </i>
   <i type="logical" name="LSCAAWARE"> F  </i>
   <i type="logical" name="LSCALU"> F  </i>
   <i type="logical" name="LASYNC"> F  </i>
   <i type="logical" name="LORBITALREAL"> F  </i>
  </separator>
  <separator name="miscellaneous" >
   <i type="int" name="IDIOT">     3</i>
   <i type="int" name="PHON_NSTRUCT">    -1</i>
   <i type="logical" name="LMUSIC"> F  </i>
   <v name="POMASS">    195.08000000</v>
   <v name="DARWINR">      0.00000000</v>
   <v name="DARWINV">      1.00000000</v>
   <i type="logical" name="LCORR"> T  </i>
  </separator>
  <i type="logical" name="GGA_COMPAT"> T  </i>
  <i type="logical" name="LBERRY"> F  </i>
  <i type="int" name="ICORELEVEL">     0</i>
  <i type="logical" name="LDAU"> F  </i>
  <i type="int" name="I_CONSTRAINED_M">     0</i>
  <separator name="electronic exchange-correlation" >
   <i type="string" name="GGA">RP</i>
   <i type="int" name="VOSKOWN">     0</i>
   <i type="logical" name="LHFCALC"> F  </i>
   <i type="string" name="PRECFOCK"></i>
   <i type="logical" name="LSYMGRAD"> F  </i>
   <i type="logical" name="LHFONE"> F  </i>
   <i type="logical" name="LRHFCALC"> F  </i>
   <i type="logical" name="LTHOMAS"> F  </i>
   <i type="logical" name="LMODELHF"> F  </i>
   <i type="logical" name="LFOCKACE"> F  </i>
   <i name="ENCUT4O">     -1.00000000</i>
   <i type="int" name="EXXOEP">     0</i>
   <i type="int" name="FOURORBIT">     0</i>
   <i name="AEXX">      0.00000000</i>
   <i name="HFALPHA">      0.00000000</i>
   <i name="MCALPHA">      0.00000000</i>
   <i name="ALDAX">      1.00000000</i>
   <i name="AGGAX">      1.00000000</i>
   <i name="ALDAC">      1.00000000</i>
   <i name="AGGAC">      1.00000000</i>
   <i type="int" name="NKREDX">     1</i>
   <i type="int" name="NKREDY">     1</i>
   <i type="int" name="NKREDZ">     1</i>
   <i type="logical" name="SHIFTRED"> F  </i>
   <i type="logical" name="ODDONLY"> F  </i>
   <i type="logical" name="EVENONLY"> F  </i>
   <i type="int" name="LMAXFOCK">     0</i>
   <i type="int" name="NMAXFOCKAE">     0</i>
   <i type="logical" name="LFOCKAEDFT"> F  </i>
   <i name="HFSCREEN">      0.00000000</i>
   <i name="HFSCREENC">      0.00000000</i>
   <i type="int" name="NBANDSGWLOW">     0</i>
  </separator>
  <separator name="vdW DFT" >
   <i type="logical" name="LUSE_VDW"> F  </i>
   <i name="Zab_VDW">     -0.84910000</i>
   <i name="PARAM1">      0.12340000</i>
   <i name="PARAM2">      1.00000000</i>
   <i name="PARAM3">      0.00000000</i>
  </separator>
  <separator name="model GW" >
   <i type="int" name="MODEL_GW">     0</i>
   <i name="MODEL_EPS0">      7.53546905</i>
   <i name="MODEL_ALPHA">      1.00000000</i>
  </separator>
  <separator name="linear response parameters" >
   <i type="logical" name="LEPSILON"> F  </i>
   <i type="logical" name="LRPA"> F  </i>
   <i type="logical" name="LNABLA"> F  </i>
   <i type="logical" name="LVEL"> F  </i>
   <i type="int" name="KINTER">     0</i>
   <i name="CSHIFT">      0.10000000</i>
   <i name="OMEGAMAX">     -1.00000000</i>
   <i name="DEG_THRESHOLD">      0.00200000</i>
   <i name="RTIME">     -0.10000000</i>
   <i name="WPLASMAI">      0.00000000</i>
   <v name="DFIELD">      0.00000000      0.00000000      0.00000000</v>
   <v name="WPLASMA">      0.00000000      0.00000000      0.00000000      0.00000000      0.00000000      0.00000000      0.00000000      0.00000000      0.00000000</v>
  </separator>
  <separator name="orbital magnetization" >
   <i type="logical" name="NUCIND"> F  </i>
   <v name="MAGPOS">      0.00000000      0.00000000      0.00000000</v>
   <i type="logical" name="LNICSALL"> T  </i>
   <i type="logical" name="ORBITALMAG"> F  </i>
   <i type="logical" name="LMAGBLOCH"> F  </i>
   <i type="logical" name="LCHIMAG"> F  </i>
   <i type="logical" name="LGAUGE"> T  </i>
   <i type="int" name="MAGATOM">     0</i>
   <v name="MAGDIPOL">      0.00000000      0.00000000      0.00000000</v>
   <v name="AVECCONST">      0.00000000      0.00000000      0.00000000</v>
  </separator>
  <separator name="response functions" >
   <i type="logical" name="LFINITE_TEMPERATURE"> F  </i>
   <i type="logical" name="LADDER"> F  </i>
   <i type="logical" name="LRPAFORCE"> F  </i>
   <i type="logical" name="LFXC"> F  </i>
   <i type="logical" name="LHARTREE"> T  </i>
   <i type="int" name="IBSE">     0</i>
   <v type="int" name="KPOINT">    -1     0     0     0</v>
   <i type="logical" name="LTCTC"> F  </i>
   <i type="logical" name="LTCTE"> F  </i>
   <i type="logical" name="LTETE"> F  </i>
   <i type="logical" name="LTRIPLET"> F  </i>
   <i type="logical" name="LFXCEPS"> F  </i>
   <i type="logical" name="LFXHEG"> F  </i>
   <i type="int" name="NATURALO">     2</i>
   <i type="logical" name="LHOLEGF"> F  </i>
   <i type="logical" name="L2ORDER"> F  </i>
   <i type="logical" name="LDMP1"> F  </i>
   <i type="logical" name="LMP2LT"> F  </i>
   <i type="logical" name="LSMP2LT"> F  </i>
   <i type="logical" name="LGWLF"> F  </i>
   <i name="ENCUTGW">     -2.00000000</i>
   <i name="ENCUTGWSOFT">     -2.00000000</i>
   <i name="ENCUTLF">     -1.00000000</i>
   <i type="logical" name="LESF_SPLINES"> F  </i>
   <i type="int" name="LMAXMP2">    -1</i>
   <i name="SCISSOR">      0.00000000</i>
   <i type="int" name="NOMEGA">     0</i>
   <i type="int" name="NOMEGAR">     0</i>
   <i type="int" name="NBANDSGW">    -1</i>
   <i type="int" name="NBANDSO">    -1</i>
   <i type="int" name="NBANDSV">    -1</i>
   <i type="int" name="NELM">    60</i>
   <i type="int" name="NELMHF">     1</i>
   <i type="int" name="DIM">     3</i>
   <i type="int" name="IESPILON">     4</i>
   <i type="int" name="ANTIRES">     0</i>
   <i name="OMEGAMAX">    -30.00000000</i>
   <i name="OMEGAMIN">    -30.00000000</i>
   <i name="OMEGATL">   -200.00000000</i>
   <i type="int" name="OMEGAGRID">     0</i>
   <i name="CSHIFT">     -0.10000000</i>
   <i type="logical" name="LSELFENERGY"> F  </i>
   <i type="logical" name="LSPECTRAL"> F  </i>
   <i type="logical" name="LSPECTRALGW"> F  </i>
   <i type="logical" name="LSINGLES"> F  </i>
   <i type="logical" name="LFERMIGW"> F  </i>
   <i type="logical" name="ODDONLYGW"> F  </i>
   <i type="logical" name="EVENONLYGW"> F  </i>
   <i type="int" name="NKREDLFX">     1</i>
   <i type="int" name="NKREDLFY">     1</i>
   <i type="int" name="NKREDLFZ">     1</i>
   <i type="int" name="MAXMEM">  2800</i>
   <i type="int" name="TELESCOPE">     0</i>
   <i type="int" name="NTAUPAR">    -1</i>
   <i type="int" name="NOMEGAPAR">    -1</i>
   <i name="DAMP_NEWTON">      0.80000001</i>
   <i name="LAMBDA">      1.00000000</i>
  </separator>
  <separator name="External order field" >
   <i name="OFIELD_KAPPA">      0.00000000</i>
   <v name="OFIELD_K">      0.00000000      0.00000000      0.00000000</v>
   <i name="OFIELD_Q6_NEAR">      0.00000000</i>
   <i name="OFIELD_Q6_FAR">      0.00000000</i>
   <i name="OFIELD_A">      0.00000000</i>
  </separator>
 </parameters>
 <atominfo>
  <atoms>       1 </atoms>
  <types>       1 </types>
  <array name="atoms" >
   <dimension dim="1">ion</dimension>
   <field type="string">element</field>
   <field type="int">atomtype</field>
   <set>
    <rc><c>Pt</c><c>   1</c></rc>
   </set>
  </array>
  <array name="atomtypes" >
   <dimension dim="1">type</dimension>
   <field type="int">atomspertype</field>
   <field type="string">element</field>
   <field>mass</field>
   <field>valence</field>
   <field type="string">pseudopotential</field>
   <set>
    <rc><c>   1</c><c>Pt</c><c>    195.08000000</c><c>     10.00000000</c><c>  PAW_PBE Pt 04Feb2005                  </c></rc>
   </set>
  </array>
 </atominfo>
 <structure name="initialpos" >
  <crystal>
   <varray name="basis" >
    <v>       2.25955100       0.00000400       1.30456600 </v>
    <v>       0.75318900       2.13032300       1.30456600 </v>
    <v>       0.00000600       0.00000400       2.60911100 </v>
   </varray>
   <i name="volume">     12.55911508 </i>
   <varray name="rec_basis" >
    <v>       0.44256653      -0.15647168      -0.00000078 </v>
    <v>      -0.00000042       0.46941297      -0.00000072 </v>
    <v>      -0.22128484      -0.15647190       0.38327306 </v>
   </varray>
  </crystal>
  <varray name="positions" >
   <v>       0.00000000       0.00000000       0.00000000 </v>
  </varray>
 </structure>
 <calculation>
  <scstep>
   <time name="dav">    0.44    0.45</time>
   <time name="total">    0.45    0.46</time>
   <energy>
    <i name="alphaZ">     75.68866627 </i>
    <i name="ewald">   -894.63525614 </i>
    <i name="hartreedc">    -56.33220643 </i>
    <i name="XCdc">      4.47149438 </i>
    <i name="pawpsdc">    696.70595042 </i>
    <i name="pawaedc">   -667.45827301 </i>
    <i name="eentropy">     -0.00071110 </i>
    <i name="bandstr">    149.85989091 </i>
    <i name="atom">    728.31920932 </i>
    <i name="e_fr_energy">     36.61876462 </i>
    <i name="e_wo_entrp">     36.61947572 </i>
    <i name="e_0_energy">     36.61912017 </i>
   </energy>
  </scstep>
  <scstep>
   <time name="dav">    0.60    0.61</time>
   <time name="total">    0.60    0.61</time>
   <energy>
    <i name="e_fr_energy">     -4.57780771 </i>
    <i name="e_wo_entrp">     -4.57659148 </i>
    <i name="e_0_energy">     -4.57719959 </i>
   </energy>
  </scstep>
  <scstep>
   <time name="dav">    0.49    0.49</time>
   <time name="total">    0.49    0.50</time>
   <energy>
    <i name="e_fr_energy">     -5.09912633 </i>
    <i name="e_wo_entrp">     -5.09783836 </i>
    <i name="e_0_energy">     -5.09848235 </i>
   </energy>
  </scstep>
  <scstep>
   <time name="dav">    0.49    0.50</time>
   <time name="total">    0.49    0.50</time>
   <energy>
    <i name="e_fr_energy">     -5.10096310 </i>
    <i name="e_wo_entrp">     -5.09967534 </i>
    <i name="e_0_energy">     -5.10031922 </i>
   </energy>
  </scstep>
  <scstep>
   <time name="dav">    0.49    0.50</time>
   <time name="total">    0.50    0.51</time>
   <energy>
    <i name="e_fr_energy">     -5.10097470 </i>
    <i name="e_wo_entrp">     -5.09968693 </i>
    <i name="e_0_energy">     -5.10033081 </i>
   </energy>
  </scstep>
  <scstep>
   <time name="dav">    0.48    0.48</time>
   <time name="total">    0.49    0.50</time>
   <energy>
    <i name="e_fr_energy">     -4.85486621 </i>
    <i name="e_wo_entrp">     -4.85336874 </i>
    <i name="e_0_energy">     -4.85411747 </i>
   </energy>
  </scstep>
  <scstep>
   <time name="dav">    0.49    0.49</time>
   <time name="total">    0.51    0.51</time>
   <energy>
    <i name="e_fr_energy">     -4.79006026 </i>
    <i name="e_wo_entrp">     -4.78856016 </i>
    <i name="e_0_energy">     -4.78931021 </i>
   </energy>
  </scstep>
  <scstep>
   <time name="dav">    0.48    0.48</time>
   <time name="total">    0.49    0.49</time>
   <energy>
    <i name="e_fr_energy">     -4.78599241 </i>
    <i name="e_wo_entrp">     -4.78451636 </i>
    <i name="e_0_energy">     -4.78525439 </i>
   </energy>
  </scstep>
  <scstep>
   <time name="dav">    0.48    0.48</time>
   <time name="total">    0.50    0.50</time>
   <energy>
    <i name="e_fr_energy">     -4.78586108 </i>
    <i name="e_wo_entrp">     -4.78438197 </i>
    <i name="e_0_energy">     -4.78512153 </i>
   </energy>
  </scstep>
  <scstep>
   <time name="dav">    0.36    0.37</time>
   <time name="total">    0.37    0.37</time>
   <energy>
    <i name="alphaZ">     75.68866627 </i>
    <i name="ewald">   -894.63525614 </i>
    <i name="hartreedc">    -46.94235156 </i>
    <i name="XCdc">      4.20597426 </i>
    <i name="pawpsdc">   1160.65021101 </i>
    <i name="pawaedc">  -1135.95070977 </i>
    <i name="eentropy">     -0.00147730 </i>
    <i name="bandstr">    103.87986551 </i>
    <i name="atom">    728.31920932 </i>
    <i name="e_fr_energy">     -4.78586840 </i>
    <i name="e_wo_entrp">     -4.78439109 </i>
    <i name="e_0_energy">     -4.78512975 </i>
   </energy>
  </scstep>
  <structure>
   <crystal>
    <varray name="basis" >
     <v>       2.25955100       0.00000400       1.30456600 </v>
     <v>       0.75318900       2.13032300       1.30456600 </v>
     <v>       0.00000600       0.00000400       2.60911100 </v>
    </varray>
    <i name="volume">     12.55911508 </i>
    <varray name="rec_basis" >
     <v>       0.44256653      -0.15647168      -0.00000078 </v>
     <v>      -0.00000042       0.46941297      -0.00000072 </v>
     <v>      -0.22128484      -0.15647190       0.38327306 </v>
    </varray>
   </crystal>
   <varray name="positions" >
    <v>       0.00000000       0.00000000       0.00000000 </v>
   </varray>
  </structure>
  <varray name="forces" >
   <v>       0.00000327       0.00000227       0.00000736 </v>
  </varray>
  <energy>
   <i name="e_fr_energy">     -4.78586840 </i>
   <i name="e_wo_entrp">     -4.78439109 </i>
   <i name="e_0_energy">     -4.78512975 </i>
  </energy>
  <time name="totalsc">    4.98    5.01</time>
  <eigenvalues>
   <array>
    <dimension dim="1">band</dimension>
    <dimension dim="2">kpoint</dimension>
    <dimension dim="3">spin</dimension>
    <field>eigene</field>
    <field>occ</field>
    <set>
     <set comment="spin 1">
      <set comment="kpoint 1">
       <r>    2.8218    1.0000 </r>
       <r>   10.1358    1.0000 </r>
       <r>   10.1359    1.0000 </r>
       <r>   10.1359    1.0000 </r>
       <r>   13.0366    1.0000 </r>
       <r>   13.0366    1.0000 </r>
       <r>   29.0947    0.0000 </r>
       <r>   35.1516    0.0000 </r>
       <r>   35.1519    0.0000 </r>
       <r>   35.1519    0.0000 </r>
       <r>   41.2112    0.0000 </r>
       <r>   47.2181    0.0000 </r>
      </set>
      <set comment="kpoint 2">
       <r>    4.0654    1.0000 </r>
       <r>    9.6417    1.0000 </r>
       <r>   10.5602    1.0000 </r>
       <r>   10.5603    1.0000 </r>
       <r>   12.8627    1.0000 </r>
       <r>   12.8627    1.0000 </r>
       <r>   30.8932    0.0000 </r>
       <r>   31.6935    0.0000 </r>
       <r>   37.3362    0.0000 </r>
       <r>   37.3365    0.0000 </r>
       <r>   42.9000    0.0000 </r>
       <r>   45.8691    0.0000 </r>
      </set>
      <set comment="kpoint 3">
       <r>    4.0654    1.0000 </r>
       <r>    9.6417    1.0000 </r>
       <r>   10.5602    1.0000 </r>
       <r>   10.5603    1.0000 </r>
       <r>   12.8627    1.0000 </r>
       <r>   12.8627    1.0000 </r>
       <r>   30.8932    0.0000 </r>
       <r>   31.6935    0.0000 </r>
       <r>   37.3362    0.0000 </r>
       <r>   37.3365    0.0000 </r>
       <r>   42.9000    0.0000 </r>
       <r>   45.8689    0.0000 </r>
      </set>
      <set comment="kpoint 4">
       <r>    4.0654    1.0000 </r>
       <r>    9.6417    1.0000 </r>
       <r>   10.5602    1.0000 </r>
       <r>   10.5603    1.0000 </r>
       <r>   12.8627    1.0000 </r>
       <r>   12.8627    1.0000 </r>
       <r>   30.8932    0.0000 </r>
       <r>   31.6936    0.0000 </r>
       <r>   37.3362    0.0000 </r>
       <r>   37.3365    0.0000 </r>
       <r>   42.9000    0.0000 </r>
       <r>   45.8690    0.0000 </r>
      </set>
      <set comment="kpoint 5">
       <r>    4.0653    1.0000 </r>
       <r>    9.6417    1.0000 </r>
       <r>   10.5603    1.0000 </r>
       <r>   10.5603    1.0000 </r>
       <r>   12.8627    1.0000 </r>
       <r>   12.8627    1.0000 </r>
       <r>   30.8932    0.0000 </r>
       <r>   31.6933    0.0000 </r>
       <r>   37.3364    0.0000 </r>
       <r>   37.3365    0.0000 </r>
       <r>   42.8999    0.0000 </r>
       <r>   45.8690    0.0000 </r>
      </set>
      <set comment="kpoint 6">
       <r>    5.7394    1.0000 </r>
       <r>   10.3703    1.0000 </r>
       <r>   10.3705    1.0000 </r>
       <r>   10.8580    1.0000 </r>
       <r>   14.0820    1.0000 </r>
       <r>   14.0820    1.0000 </r>
       <r>   26.7756    0.0000 </r>
       <r>   30.7383    0.0000 </r>
       <r>   38.5916    0.0000 </r>
       <r>   38.5918    0.0000 </r>
       <r>   41.7733    0.0000 </r>
       <r>   42.8215    0.0000 </r>
      </set>
      <set comment="kpoint 7">
       <r>    5.7394    1.0000 </r>
       <r>   10.3703    1.0000 </r>
       <r>   10.3705    1.0000 </r>
       <r>   10.8580    1.0000 </r>
       <r>   14.0820    1.0000 </r>
       <r>   14.0820    1.0000 </r>
       <r>   26.7756    0.0000 </r>
       <r>   30.7383    0.0000 </r>
       <r>   38.5916    0.0000 </r>
       <r>   38.5918    0.0000 </r>
       <r>   41.7733    0.0000 </r>
       <r>   42.8215    0.0000 </r>
      </set>
      <set comment="kpoint 8">
       <r>    5.7394    1.0000 </r>
       <r>   10.3703    1.0000 </r>
       <r>   10.3705    1.0000 </r>
       <r>   10.8580    1.0000 </r>
       <r>   14.0820    1.0000 </r>
       <r>   14.0820    1.0000 </r>
       <r>   26.7756    0.0000 </r>
       <r>   30.7383    0.0000 </r>
       <r>   38.5916    0.0000 </r>
       <r>   38.5918    0.0000 </r>
       <r>   41.7733    0.0000 </r>
       <r>   42.8215    0.0000 </r>
      </set>
      <set comment="kpoint 9">
       <r>    5.7393    1.0000 </r>
       <r>   10.3704    1.0000 </r>
       <r>   10.3704    1.0000 </r>
       <r>   10.8580    1.0000 </r>
       <r>   14.0821    1.0000 </r>
       <r>   14.0821    1.0000 </r>
       <r>   26.7755    0.0000 </r>
       <r>   30.7382    0.0000 </r>
       <r>   38.5918    0.0000 </r>
       <r>   38.5918    0.0000 </r>
       <r>   41.7732    0.0000 </r>
       <r>   42.8215    0.0000 </r>
      </set>
      <set comment="kpoint 10">
       <r>    5.7619    1.0000 </r>
       <r>   10.0219    1.0000 </r>
       <r>   10.0220    1.0000 </r>
       <r>   14.0241    1.0000 </r>
       <r>   15.3047    0.6122 </r>
       <r>   15.3047    0.6112 </r>
       <r>   22.6963    0.0000 </r>
       <r>   28.7443    0.0000 </r>
       <r>   35.3561    0.0000 </r>
       <r>   35.3563    0.0000 </r>
       <r>   47.0692    0.0000 </r>
       <r>   47.0692    0.0000 </r>
      </set>
      <set comment="kpoint 11">
       <r>    5.7619    1.0000 </r>
       <r>   10.0219    1.0000 </r>
       <r>   10.0220    1.0000 </r>
       <r>   14.0241    1.0000 </r>
       <r>   15.3047    0.6121 </r>
       <r>   15.3047    0.6112 </r>
       <r>   22.6963    0.0000 </r>
       <r>   28.7443    0.0000 </r>
       <r>   35.3561    0.0000 </r>
       <r>   35.3563    0.0000 </r>
       <r>   47.0692    0.0000 </r>
       <r>   47.0692    0.0000 </r>
      </set>
      <set comment="kpoint 12">
       <r>    5.7619    1.0000 </r>
       <r>   10.0219    1.0000 </r>
       <r>   10.0220    1.0000 </r>
       <r>   14.0241    1.0000 </r>
       <r>   15.3047    0.6121 </r>
       <r>   15.3047    0.6112 </r>
       <r>   22.6963    0.0000 </r>
       <r>   28.7443    0.0000 </r>
       <r>   35.3561    0.0000 </r>
       <r>   35.3563    0.0000 </r>
       <r>   47.0692    0.0000 </r>
       <r>   47.0692    0.0000 </r>
      </set>
      <set comment="kpoint 13">
       <r>    5.7619    1.0000 </r>
       <r>   10.0220    1.0000 </r>
       <r>   10.0220    1.0000 </r>
       <r>   14.0240    1.0000 </r>
       <r>   15.3047    0.6121 </r>
       <r>   15.3047    0.6120 </r>
       <r>   22.6961    0.0000 </r>
       <r>   28.7444    0.0000 </r>
       <r>   35.3563    0.0000 </r>
       <r>   35.3563    0.0000 </r>
       <r>   47.0693    0.0000 </r>
       <r>   47.0693    0.0000 </r>
      </set>
      <set comment="kpoint 14">
       <r>    4.5000    1.0000 </r>
       <r>    8.9732    1.0000 </r>
       <r>   11.1323    1.0000 </r>
       <r>   11.1324    1.0000 </r>
       <r>   11.7393    1.0000 </r>
       <r>   13.5333    1.0000 </r>
       <r>   32.0094    0.0000 </r>
       <r>   33.4205    0.0000 </r>
       <r>   35.6129    0.0000 </r>
       <r>   35.6131    0.0000 </r>
       <r>   44.3949    0.0000 </r>
       <r>   44.3950    0.0000 </r>
      </set>
      <set comment="kpoint 15">
       <r>    4.5000    1.0000 </r>
       <r>    8.9732    1.0000 </r>
       <r>   11.1323    1.0000 </r>
       <r>   11.1324    1.0000 </r>
       <r>   11.7393    1.0000 </r>
       <r>   13.5333    1.0000 </r>
       <r>   32.0094    0.0000 </r>
       <r>   33.4205    0.0000 </r>
       <r>   35.6129    0.0000 </r>
       <r>   35.6131    0.0000 </r>
       <r>   44.3949    0.0000 </r>
       <r>   44.3950    0.0000 </r>
      </set>
      <set comment="kpoint 16">
       <r>    4.5000    1.0000 </r>
       <r>    8.9732    1.0000 </r>
       <r>   11.1323    1.0000 </r>
       <r>   11.1324    1.0000 </r>
       <r>   11.7393    1.0000 </r>
       <r>   13.5333    1.0000 </r>
       <r>   32.0094    0.0000 </r>
       <r>   33.4205    0.0000 </r>
       <r>   35.6129    0.0000 </r>
       <r>   35.6131    0.0000 </r>
       <r>   44.3949    0.0000 </r>
       <r>   44.3951    0.0000 </r>
      </set>
      <set comment="kpoint 17">
       <r>    6.3503    1.0000 </r>
       <r>    8.5827    1.0000 </r>
       <r>   10.2270    1.0000 </r>
       <r>   11.5492    1.0000 </r>
       <r>   13.7308    1.0000 </r>
       <r>   14.5236    1.0000 </r>
       <r>   29.4099    0.0000 </r>
       <r>   32.9971    0.0000 </r>
       <r>   35.0865    0.0000 </r>
       <r>   36.6384    0.0000 </r>
       <r>   42.5011    0.0000 </r>
       <r>   42.5749    0.0000 </r>
      </set>
      <set comment="kpoint 18">
       <r>    6.3503    1.0000 </r>
       <r>    8.5827    1.0000 </r>
       <r>   10.2270    1.0000 </r>
       <r>   11.5492    1.0000 </r>
       <r>   13.7308    1.0000 </r>
       <r>   14.5236    1.0000 </r>
       <r>   29.4099    0.0000 </r>
       <r>   32.9971    0.0000 </r>
       <r>   35.0865    0.0000 </r>
       <r>   36.6384    0.0000 </r>
       <r>   42.5011    0.0000 </r>
       <r>   42.5749    0.0000 </r>
      </set>
      <set comment="kpoint 19">
       <r>    6.3503    1.0000 </r>
       <r>    8.5827    1.0000 </r>
       <r>   10.2270    1.0000 </r>
       <r>   11.5492    1.0000 </r>
       <r>   13.7308    1.0000 </r>
       <r>   14.5236    1.0000 </r>
       <r>   29.4099    0.0000 </r>
       <r>   32.9971    0.0000 </r>
       <r>   35.0865    0.0000 </r>
       <r>   36.6384    0.0000 </r>
       <r>   42.5011    0.0000 </r>
       <r>   42.5749    0.0000 </r>
      </set>
      <set comment="kpoint 20">
       <r>    6.3502    1.0000 </r>
       <r>    8.5827    1.0000 </r>
       <r>   10.2269    1.0000 </r>
       <r>   11.5493    1.0000 </r>
       <r>   13.7307    1.0000 </r>
       <r>   14.5236    1.0000 </r>
       <r>   29.4099    0.0000 </r>
       <r>   32.9971    0.0000 </r>
       <r>   35.0866    0.0000 </r>
       <r>   36.6384    0.0000 </r>
       <r>   42.5013    0.0000 </r>
       <r>   42.5747    0.0000 </r>
      </set>
      <set comment="kpoint 21">
       <r>    6.3502    1.0000 </r>
       <r>    8.5827    1.0000 </r>
       <r>   10.2269    1.0000 </r>
       <r>   11.5493    1.0000 </r>
       <r>   13.7308    1.0000 </r>
       <r>   14.5236    1.0000 </r>
       <r>   29.4097    0.0000 </r>
       <r>   32.9970    0.0000 </r>
       <r>   35.0867    0.0000 </r>
       <r>   36.6383    0.0000 </r>
       <r>   42.5012    0.0000 </r>
       <r>   42.5749    0.0000 </r>
      </set>
      <set comment="kpoint 22">
       <r>    6.3503    1.0000 </r>
       <r>    8.5827    1.0000 </r>
       <r>   10.2270    1.0000 </r>
       <r>   11.5492    1.0000 </r>
       <r>   13.7308    1.0000 </r>
       <r>   14.5236    1.0000 </r>
       <r>   29.4099    0.0000 </r>
       <r>   32.9971    0.0000 </r>
       <r>   35.0865    0.0000 </r>
       <r>   36.6384    0.0000 </r>
       <r>   42.5011    0.0000 </r>
       <r>   42.5749    0.0000 </r>
      </set>
      <set comment="kpoint 23">
       <r>    6.3502    1.0000 </r>
       <r>    8.5827    1.0000 </r>
       <r>   10.2269    1.0000 </r>
       <r>   11.5493    1.0000 </r>
       <r>   13.7307    1.0000 </r>
       <r>   14.5236    1.0000 </r>
       <r>   29.4099    0.0000 </r>
       <r>   32.9971    0.0000 </r>
       <r>   35.0867    0.0000 </r>
       <r>   36.6384    0.0000 </r>
       <r>   42.5013    0.0000 </r>
       <r>   42.5747    0.0000 </r>
      </set>
      <set comment="kpoint 24">
       <r>    6.3502    1.0000 </r>
       <r>    8.5827    1.0000 </r>
       <r>   10.2269    1.0000 </r>
       <r>   11.5492    1.0000 </r>
       <r>   13.7308    1.0000 </r>
       <r>   14.5236    1.0000 </r>
       <r>   29.4097    0.0000 </r>
       <r>   32.9970    0.0000 </r>
       <r>   35.0867    0.0000 </r>
       <r>   36.6383    0.0000 </r>
       <r>   42.5012    0.0000 </r>
       <r>   42.5749    0.0000 </r>
      </set>
      <set comment="kpoint 25">
       <r>    6.3503    1.0000 </r>
       <r>    8.5827    1.0000 </r>
       <r>   10.2270    1.0000 </r>
       <r>   11.5492    1.0000 </r>
       <r>   13.7308    1.0000 </r>
       <r>   14.5236    1.0000 </r>
       <r>   29.4099    0.0000 </r>
       <r>   32.9971    0.0000 </r>
       <r>   35.0865    0.0000 </r>
       <r>   36.6384    0.0000 </r>
       <r>   42.5011    0.0000 </r>
       <r>   42.5749    0.0000 </r>
      </set>
      <set comment="kpoint 26">
       <r>    6.3502    1.0000 </r>
       <r>    8.5827    1.0000 </r>
       <r>   10.2269    1.0000 </r>
       <r>   11.5493    1.0000 </r>
       <r>   13.7307    1.0000 </r>
       <r>   14.5236    1.0000 </r>
       <r>   29.4099    0.0000 </r>
       <r>   32.9971    0.0000 </r>
       <r>   35.0867    0.0000 </r>
       <r>   36.6384    0.0000 </r>
       <r>   42.5013    0.0000 </r>
       <r>   42.5747    0.0000 </r>
      </set>
      <set comment="kpoint 27">
       <r>    6.3502    1.0000 </r>
       <r>    8.5827    1.0000 </r>
       <r>   10.2269    1.0000 </r>
       <r>   11.5493    1.0000 </r>
       <r>   13.7308    1.0000 </r>
       <r>   14.5236    1.0000 </r>
       <r>   29.4097    0.0000 </r>
       <r>   32.9970    0.0000 </r>
       <r>   35.0867    0.0000 </r>
       <r>   36.6383    0.0000 </r>
       <r>   42.5012    0.0000 </r>
       <r>   42.5749    0.0000 </r>
      </set>
      <set comment="kpoint 28">
       <r>    6.3503    1.0000 </r>
       <r>    8.5827    1.0000 </r>
       <r>   10.2270    1.0000 </r>
       <r>   11.5492    1.0000 </r>
       <r>   13.7308    1.0000 </r>
       <r>   14.5236    1.0000 </r>
       <r>   29.4099    0.0000 </r>
       <r>   32.9971    0.0000 </r>
       <r>   35.0865    0.0000 </r>
       <r>   36.6384    0.0000 </r>
       <r>   42.5011    0.0000 </r>
       <r>   42.5749    0.0000 </r>
      </set>
      <set comment="kpoint 29">
       <r>    6.6931    1.0000 </r>
       <r>    9.2058    1.0000 </r>
       <r>   10.9385    1.0000 </r>
       <r>   11.0376    1.0000 </r>
       <r>   15.3907    0.0159 </r>
       <r>   18.0546    0.0000 </r>
       <r>   22.9913    0.0000 </r>
       <r>   30.7031    0.0000 </r>
       <r>   34.1365    0.0000 </r>
       <r>   34.7909    0.0000 </r>
       <r>   44.6311    0.0000 </r>
       <r>   46.5305    0.0000 </r>
      </set>
      <set comment="kpoint 30">
       <r>    6.6931    1.0000 </r>
       <r>    9.2058    1.0000 </r>
       <r>   10.9385    1.0000 </r>
       <r>   11.0376    1.0000 </r>
       <r>   15.3907    0.0159 </r>
       <r>   18.0546    0.0000 </r>
       <r>   22.9913    0.0000 </r>
       <r>   30.7031    0.0000 </r>
       <r>   34.1365    0.0000 </r>
       <r>   34.7909    0.0000 </r>
       <r>   44.6311    0.0000 </r>
       <r>   46.5309    0.0000 </r>
      </set>
      <set comment="kpoint 31">
       <r>    6.6931    1.0000 </r>
       <r>    9.2058    1.0000 </r>
       <r>   10.9385    1.0000 </r>
       <r>   11.0376    1.0000 </r>
       <r>   15.3907    0.0159 </r>
       <r>   18.0546    0.0000 </r>
       <r>   22.9913    0.0000 </r>
       <r>   30.7031    0.0000 </r>
       <r>   34.1365    0.0000 </r>
       <r>   34.7909    0.0000 </r>
       <r>   44.6311    0.0000 </r>
       <r>   46.5304    0.0000 </r>
      </set>
      <set comment="kpoint 32">
       <r>    6.6930    1.0000 </r>
       <r>    9.2058    1.0000 </r>
       <r>   10.9385    1.0000 </r>
       <r>   11.0377    1.0000 </r>
       <r>   15.3907    0.0158 </r>
       <r>   18.0546    0.0000 </r>
       <r>   22.9913    0.0000 </r>
       <r>   30.7030    0.0000 </r>
       <r>   34.1366    0.0000 </r>
       <r>   34.7909    0.0000 </r>
       <r>   44.6312    0.0000 </r>
       <r>   46.5309    0.0000 </r>
      </set>
      <set comment="kpoint 33">
       <r>    6.6930    1.0000 </r>
       <r>    9.2058    1.0000 </r>
       <r>   10.9384    1.0000 </r>
       <r>   11.0377    1.0000 </r>
       <r>   15.3906    0.0159 </r>
       <r>   18.0546    0.0000 </r>
       <r>   22.9911    0.0000 </r>
       <r>   30.7032    0.0000 </r>
       <r>   34.1367    0.0000 </r>
       <r>   34.7910    0.0000 </r>
       <r>   44.6313    0.0000 </r>
       <r>   46.5304    0.0000 </r>
      </set>
      <set comment="kpoint 34">
       <r>    6.6931    1.0000 </r>
       <r>    9.2058    1.0000 </r>
       <r>   10.9385    1.0000 </r>
       <r>   11.0376    1.0000 </r>
       <r>   15.3907    0.0159 </r>
       <r>   18.0546    0.0000 </r>
       <r>   22.9913    0.0000 </r>
       <r>   30.7031    0.0000 </r>
       <r>   34.1365    0.0000 </r>
       <r>   34.7909    0.0000 </r>
       <r>   44.6311    0.0000 </r>
       <r>   46.5306    0.0000 </r>
      </set>
      <set comment="kpoint 35">
       <r>    6.6930    1.0000 </r>
       <r>    9.2058    1.0000 </r>
       <r>   10.9385    1.0000 </r>
       <r>   11.0377    1.0000 </r>
       <r>   15.3907    0.0158 </r>
       <r>   18.0546    0.0000 </r>
       <r>   22.9913    0.0000 </r>
       <r>   30.7030    0.0000 </r>
       <r>   34.1366    0.0000 </r>
       <r>   34.7909    0.0000 </r>
       <r>   44.6312    0.0000 </r>
       <r>   46.5304    0.0000 </r>
      </set>
      <set comment="kpoint 36">
       <r>    6.6930    1.0000 </r>
       <r>    9.2058    1.0000 </r>
       <r>   10.9384    1.0000 </r>
       <r>   11.0377    1.0000 </r>
       <r>   15.3906    0.0159 </r>
       <r>   18.0546    0.0000 </r>
       <r>   22.9911    0.0000 </r>
       <r>   30.7032    0.0000 </r>
       <r>   34.1367    0.0000 </r>
       <r>   34.7910    0.0000 </r>
       <r>   44.6313    0.0000 </r>
       <r>   46.5310    0.0000 </r>
      </set>
      <set comment="kpoint 37">
       <r>    6.6931    1.0000 </r>
       <r>    9.2058    1.0000 </r>
       <r>   10.9385    1.0000 </r>
       <r>   11.0376    1.0000 </r>
       <r>   15.3907    0.0159 </r>
       <r>   18.0546    0.0000 </r>
       <r>   22.9913    0.0000 </r>
       <r>   30.7031    0.0000 </r>
       <r>   34.1365    0.0000 </r>
       <r>   34.7909    0.0000 </r>
       <r>   44.6311    0.0000 </r>
       <r>   46.5304    0.0000 </r>
      </set>
      <set comment="kpoint 38">
       <r>    6.6930    1.0000 </r>
       <r>    9.2058    1.0000 </r>
       <r>   10.9385    1.0000 </r>
       <r>   11.0377    1.0000 </r>
       <r>   15.3907    0.0158 </r>
       <r>   18.0546    0.0000 </r>
       <r>   22.9913    0.0000 </r>
       <r>   30.7030    0.0000 </r>
       <r>   34.1366    0.0000 </r>
       <r>   34.7909    0.0000 </r>
       <r>   44.6312    0.0000 </r>
       <r>   46.5304    0.0000 </r>
      </set>
      <set comment="kpoint 39">
       <r>    6.6930    1.0000 </r>
       <r>    9.2058    1.0000 </r>
       <r>   10.9384    1.0000 </r>
       <r>   11.0377    1.0000 </r>
       <r>   15.3906    0.0159 </r>
       <r>   18.0546    0.0000 </r>
       <r>   22.9911    0.0000 </r>
       <r>   30.7032    0.0000 </r>
       <r>   34.1367    0.0000 </r>
       <r>   34.7910    0.0000 </r>
       <r>   44.6313    0.0000 </r>
       <r>   46.5306    0.0000 </r>
      </set>
      <set comment="kpoint 40">
       <r>    6.6931    1.0000 </r>
       <r>    9.2058    1.0000 </r>
       <r>   10.9385    1.0000 </r>
       <r>   11.0376    1.0000 </r>
       <r>   15.3907    0.0159 </r>
       <r>   18.0546    0.0000 </r>
       <r>   22.9913    0.0000 </r>
       <r>   30.7031    0.0000 </r>
       <r>   34.1365    0.0000 </r>
       <r>   34.7909    0.0000 </r>
       <r>   44.6311    0.0000 </r>
       <r>   46.5305    0.0000 </r>
      </set>
      <set comment="kpoint 41">
       <r>    6.9033    1.0000 </r>
       <r>    9.4856    1.0000 </r>
       <r>   10.4754    1.0000 </r>
       <r>   10.9892    1.0000 </r>
       <r>   13.7362    1.0000 </r>
       <r>   17.4166    0.0000 </r>
       <r>   25.3524    0.0000 </r>
       <r>   31.1027    0.0000 </r>
       <r>   33.0087    0.0000 </r>
       <r>   38.0173    0.0000 </r>
       <r>   40.6963    0.0000 </r>
       <r>   45.9705    0.0000 </r>
      </set>
      <set comment="kpoint 42">
       <r>    6.9033    1.0000 </r>
       <r>    9.4856    1.0000 </r>
       <r>   10.4754    1.0000 </r>
       <r>   10.9892    1.0000 </r>
       <r>   13.7362    1.0000 </r>
       <r>   17.4167    0.0000 </r>
       <r>   25.3524    0.0000 </r>
       <r>   31.1027    0.0000 </r>
       <r>   33.0087    0.0000 </r>
       <r>   38.0173    0.0000 </r>
       <r>   40.6963    0.0000 </r>
       <r>   45.9705    0.0000 </r>
      </set>
      <set comment="kpoint 43">
       <r>    6.9033    1.0000 </r>
       <r>    9.4856    1.0000 </r>
       <r>   10.4754    1.0000 </r>
       <r>   10.9892    1.0000 </r>
       <r>   13.7362    1.0000 </r>
       <r>   17.4167    0.0000 </r>
       <r>   25.3524    0.0000 </r>
       <r>   31.1027    0.0000 </r>
       <r>   33.0087    0.0000 </r>
       <r>   38.0173    0.0000 </r>
       <r>   40.6963    0.0000 </r>
       <r>   45.9705    0.0000 </r>
      </set>
      <set comment="kpoint 44">
       <r>    6.9032    1.0000 </r>
       <r>    9.4855    1.0000 </r>
       <r>   10.4754    1.0000 </r>
       <r>   10.9893    1.0000 </r>
       <r>   13.7363    1.0000 </r>
       <r>   17.4165    0.0000 </r>
       <r>   25.3524    0.0000 </r>
       <r>   31.1026    0.0000 </r>
       <r>   33.0087    0.0000 </r>
       <r>   38.0175    0.0000 </r>
       <r>   40.6964    0.0000 </r>
       <r>   45.9705    0.0000 </r>
      </set>
      <set comment="kpoint 45">
       <r>    6.9032    1.0000 </r>
       <r>    9.4856    1.0000 </r>
       <r>   10.4753    1.0000 </r>
       <r>   10.9892    1.0000 </r>
       <r>   13.7363    1.0000 </r>
       <r>   17.4165    0.0000 </r>
       <r>   25.3522    0.0000 </r>
       <r>   31.1028    0.0000 </r>
       <r>   33.0088    0.0000 </r>
       <r>   38.0175    0.0000 </r>
       <r>   40.6962    0.0000 </r>
       <r>   45.9707    0.0000 </r>
      </set>
      <set comment="kpoint 46">
       <r>    6.9033    1.0000 </r>
       <r>    9.4856    1.0000 </r>
       <r>   10.4754    1.0000 </r>
       <r>   10.9892    1.0000 </r>
       <r>   13.7362    1.0000 </r>
       <r>   17.4166    0.0000 </r>
       <r>   25.3524    0.0000 </r>
       <r>   31.1027    0.0000 </r>
       <r>   33.0087    0.0000 </r>
       <r>   38.0173    0.0000 </r>
       <r>   40.6963    0.0000 </r>
       <r>   45.9705    0.0000 </r>
      </set>
      <set comment="kpoint 47">
       <r>    6.9032    1.0000 </r>
       <r>    9.4855    1.0000 </r>
       <r>   10.4754    1.0000 </r>
       <r>   10.9893    1.0000 </r>
       <r>   13.7363    1.0000 </r>
       <r>   17.4165    0.0000 </r>
       <r>   25.3524    0.0000 </r>
       <r>   31.1026    0.0000 </r>
       <r>   33.0087    0.0000 </r>
       <r>   38.0175    0.0000 </r>
       <r>   40.6963    0.0000 </r>
       <r>   45.9705    0.0000 </r>
      </set>
      <set comment="kpoint 48">
       <r>    6.9032    1.0000 </r>
       <r>    9.4856    1.0000 </r>
       <r>   10.4753    1.0000 </r>
       <r>   10.9892    1.0000 </r>
       <r>   13.7363    1.0000 </r>
       <r>   17.4165    0.0000 </r>
       <r>   25.3522    0.0000 </r>
       <r>   31.1028    0.0000 </r>
       <r>   33.0088    0.0000 </r>
       <r>   38.0175    0.0000 </r>
       <r>   40.6962    0.0000 </r>
       <r>   45.9707    0.0000 </r>
      </set>
      <set comment="kpoint 49">
       <r>    6.9033    1.0000 </r>
       <r>    9.4856    1.0000 </r>
       <r>   10.4754    1.0000 </r>
       <r>   10.9892    1.0000 </r>
       <r>   13.7362    1.0000 </r>
       <r>   17.4167    0.0000 </r>
       <r>   25.3524    0.0000 </r>
       <r>   31.1027    0.0000 </r>
       <r>   33.0087    0.0000 </r>
       <r>   38.0173    0.0000 </r>
       <r>   40.6963    0.0000 </r>
       <r>   45.9705    0.0000 </r>
      </set>
      <set comment="kpoint 50">
       <r>    6.9032    1.0000 </r>
       <r>    9.4855    1.0000 </r>
       <r>   10.4754    1.0000 </r>
       <r>   10.9893    1.0000 </r>
       <r>   13.7363    1.0000 </r>
       <r>   17.4165    0.0000 </r>
       <r>   25.3524    0.0000 </r>
       <r>   31.1026    0.0000 </r>
       <r>   33.0087    0.0000 </r>
       <r>   38.0175    0.0000 </r>
       <r>   40.6963    0.0000 </r>
       <r>   45.9705    0.0000 </r>
      </set>
      <set comment="kpoint 51">
       <r>    6.9032    1.0000 </r>
       <r>    9.4856    1.0000 </r>
       <r>   10.4753    1.0000 </r>
       <r>   10.9892    1.0000 </r>
       <r>   13.7363    1.0000 </r>
       <r>   17.4165    0.0000 </r>
       <r>   25.3522    0.0000 </r>
       <r>   31.1028    0.0000 </r>
       <r>   33.0088    0.0000 </r>
       <r>   38.0175    0.0000 </r>
       <r>   40.6962    0.0000 </r>
       <r>   45.9707    0.0000 </r>
      </set>
      <set comment="kpoint 52">
       <r>    6.9033    1.0000 </r>
       <r>    9.4856    1.0000 </r>
       <r>   10.4754    1.0000 </r>
       <r>   10.9892    1.0000 </r>
       <r>   13.7362    1.0000 </r>
       <r>   17.4167    0.0000 </r>
       <r>   25.3524    0.0000 </r>
       <r>   31.1027    0.0000 </r>
       <r>   33.0087    0.0000 </r>
       <r>   38.0173    0.0000 </r>
       <r>   40.6963    0.0000 </r>
       <r>   45.9705    0.0000 </r>
      </set>
      <set comment="kpoint 53">
       <r>    5.8143    1.0000 </r>
       <r>    8.9831    1.0000 </r>
       <r>   10.5000    1.0000 </r>
       <r>   11.4405    1.0000 </r>
       <r>   11.8158    1.0000 </r>
       <r>   14.6111    1.0000 </r>
       <r>   30.1587    0.0000 </r>
       <r>   33.1278    0.0000 </r>
       <r>   35.7724    0.0000 </r>
       <r>   36.3205    0.0000 </r>
       <r>   41.5271    0.0000 </r>
       <r>   45.7973    0.0000 </r>
      </set>
      <set comment="kpoint 54">
       <r>    5.8143    1.0000 </r>
       <r>    8.9831    1.0000 </r>
       <r>   10.5000    1.0000 </r>
       <r>   11.4405    1.0000 </r>
       <r>   11.8158    1.0000 </r>
       <r>   14.6111    1.0000 </r>
       <r>   30.1587    0.0000 </r>
       <r>   33.1278    0.0000 </r>
       <r>   35.7724    0.0000 </r>
       <r>   36.3205    0.0000 </r>
       <r>   41.5271    0.0000 </r>
       <r>   45.7976    0.0000 </r>
      </set>
      <set comment="kpoint 55">
       <r>    5.8143    1.0000 </r>
       <r>    8.9831    1.0000 </r>
       <r>   10.5000    1.0000 </r>
       <r>   11.4405    1.0000 </r>
       <r>   11.8158    1.0000 </r>
       <r>   14.6111    1.0000 </r>
       <r>   30.1587    0.0000 </r>
       <r>   33.1278    0.0000 </r>
       <r>   35.7724    0.0000 </r>
       <r>   36.3205    0.0000 </r>
       <r>   41.5271    0.0000 </r>
       <r>   45.7973    0.0000 </r>
      </set>
      <set comment="kpoint 56">
       <r>    5.8143    1.0000 </r>
       <r>    8.9831    1.0000 </r>
       <r>   10.4999    1.0000 </r>
       <r>   11.4405    1.0000 </r>
       <r>   11.8159    1.0000 </r>
       <r>   14.6111    1.0000 </r>
       <r>   30.1586    0.0000 </r>
       <r>   33.1277    0.0000 </r>
       <r>   35.7725    0.0000 </r>
       <r>   36.3204    0.0000 </r>
       <r>   41.5272    0.0000 </r>
       <r>   45.7977    0.0000 </r>
      </set>
      <set comment="kpoint 57">
       <r>    5.8143    1.0000 </r>
       <r>    8.9831    1.0000 </r>
       <r>   10.4999    1.0000 </r>
       <r>   11.4405    1.0000 </r>
       <r>   11.8159    1.0000 </r>
       <r>   14.6111    1.0000 </r>
       <r>   30.1586    0.0000 </r>
       <r>   33.1277    0.0000 </r>
       <r>   35.7725    0.0000 </r>
       <r>   36.3204    0.0000 </r>
       <r>   41.5272    0.0000 </r>
       <r>   45.7972    0.0000 </r>
      </set>
      <set comment="kpoint 58">
       <r>    5.8143    1.0000 </r>
       <r>    8.9831    1.0000 </r>
       <r>   10.4999    1.0000 </r>
       <r>   11.4405    1.0000 </r>
       <r>   11.8159    1.0000 </r>
       <r>   14.6111    1.0000 </r>
       <r>   30.1586    0.0000 </r>
       <r>   33.1277    0.0000 </r>
       <r>   35.7725    0.0000 </r>
       <r>   36.3204    0.0000 </r>
       <r>   41.5272    0.0000 </r>
       <r>   45.7976    0.0000 </r>
      </set>
      <set comment="kpoint 59">
       <r>    6.4228    1.0000 </r>
       <r>    7.1610    1.0000 </r>
       <r>   12.3756    1.0000 </r>
       <r>   13.8002    1.0000 </r>
       <r>   13.8002    1.0000 </r>
       <r>   14.6407    1.0000 </r>
       <r>   31.0462    0.0000 </r>
       <r>   31.0464    0.0000 </r>
       <r>   32.5452    0.0000 </r>
       <r>   36.4931    0.0000 </r>
       <r>   38.2411    0.0000 </r>
       <r>   46.0455    0.0000 </r>
      </set>
      <set comment="kpoint 60">
       <r>    6.4228    1.0000 </r>
       <r>    7.1610    1.0000 </r>
       <r>   12.3756    1.0000 </r>
       <r>   13.8002    1.0000 </r>
       <r>   13.8002    1.0000 </r>
       <r>   14.6407    1.0000 </r>
       <r>   31.0462    0.0000 </r>
       <r>   31.0464    0.0000 </r>
       <r>   32.5452    0.0000 </r>
       <r>   36.4931    0.0000 </r>
       <r>   38.2411    0.0000 </r>
       <r>   46.0454    0.0000 </r>
      </set>
      <set comment="kpoint 61">
       <r>    6.4228    1.0000 </r>
       <r>    7.1610    1.0000 </r>
       <r>   12.3756    1.0000 </r>
       <r>   13.8002    1.0000 </r>
       <r>   13.8002    1.0000 </r>
       <r>   14.6407    1.0000 </r>
       <r>   31.0462    0.0000 </r>
       <r>   31.0464    0.0000 </r>
       <r>   32.5452    0.0000 </r>
       <r>   36.4931    0.0000 </r>
       <r>   38.2411    0.0000 </r>
       <r>   46.0456    0.0000 </r>
      </set>
      <set comment="kpoint 62">
       <r>    6.5725    1.0000 </r>
       <r>    7.3144    1.0000 </r>
       <r>   12.0040    1.0000 </r>
       <r>   13.6106    1.0000 </r>
       <r>   15.5966    0.0000 </r>
       <r>   18.8377    0.0000 </r>
       <r>   24.6590    0.0000 </r>
       <r>   29.5820    0.0000 </r>
       <r>   29.9974    0.0000 </r>
       <r>   37.6502    0.0000 </r>
       <r>   41.9586    0.0000 </r>
       <r>   44.5785    0.0000 </r>
      </set>
      <set comment="kpoint 63">
       <r>    6.5725    1.0000 </r>
       <r>    7.3144    1.0000 </r>
       <r>   12.0040    1.0000 </r>
       <r>   13.6106    1.0000 </r>
       <r>   15.5966    0.0000 </r>
       <r>   18.8377    0.0000 </r>
       <r>   24.6590    0.0000 </r>
       <r>   29.5820    0.0000 </r>
       <r>   29.9974    0.0000 </r>
       <r>   37.6502    0.0000 </r>
       <r>   41.9586    0.0000 </r>
       <r>   44.5784    0.0000 </r>
      </set>
      <set comment="kpoint 64">
       <r>    6.5725    1.0000 </r>
       <r>    7.3144    1.0000 </r>
       <r>   12.0040    1.0000 </r>
       <r>   13.6106    1.0000 </r>
       <r>   15.5966    0.0000 </r>
       <r>   18.8377    0.0000 </r>
       <r>   24.6590    0.0000 </r>
       <r>   29.5820    0.0000 </r>
       <r>   29.9974    0.0000 </r>
       <r>   37.6502    0.0000 </r>
       <r>   41.9586    0.0000 </r>
       <r>   44.5784    0.0000 </r>
      </set>
      <set comment="kpoint 65">
       <r>    6.5725    1.0000 </r>
       <r>    7.3144    1.0000 </r>
       <r>   12.0040    1.0000 </r>
       <r>   13.6107    1.0000 </r>
       <r>   15.5966    0.0000 </r>
       <r>   18.8378    0.0000 </r>
       <r>   24.6589    0.0000 </r>
       <r>   29.5819    0.0000 </r>
       <r>   29.9976    0.0000 </r>
       <r>   37.6502    0.0000 </r>
       <r>   41.9584    0.0000 </r>
       <r>   44.5785    0.0000 </r>
      </set>
      <set comment="kpoint 66">
       <r>    6.5725    1.0000 </r>
       <r>    7.3144    1.0000 </r>
       <r>   12.0040    1.0000 </r>
       <r>   13.6107    1.0000 </r>
       <r>   15.5966    0.0000 </r>
       <r>   18.8377    0.0000 </r>
       <r>   24.6588    0.0000 </r>
       <r>   29.5821    0.0000 </r>
       <r>   29.9976    0.0000 </r>
       <r>   37.6503    0.0000 </r>
       <r>   41.9584    0.0000 </r>
       <r>   44.5786    0.0000 </r>
      </set>
      <set comment="kpoint 67">
       <r>    6.5725    1.0000 </r>
       <r>    7.3144    1.0000 </r>
       <r>   12.0040    1.0000 </r>
       <r>   13.6106    1.0000 </r>
       <r>   15.5966    0.0000 </r>
       <r>   18.8377    0.0000 </r>
       <r>   24.6590    0.0000 </r>
       <r>   29.5820    0.0000 </r>
       <r>   29.9974    0.0000 </r>
       <r>   37.6502    0.0000 </r>
       <r>   41.9586    0.0000 </r>
       <r>   44.5784    0.0000 </r>
      </set>
      <set comment="kpoint 68">
       <r>    6.5725    1.0000 </r>
       <r>    7.3143    1.0000 </r>
       <r>   12.0040    1.0000 </r>
       <r>   13.6107    1.0000 </r>
       <r>   15.5966    0.0000 </r>
       <r>   18.8378    0.0000 </r>
       <r>   24.6589    0.0000 </r>
       <r>   29.5819    0.0000 </r>
       <r>   29.9976    0.0000 </r>
       <r>   37.6502    0.0000 </r>
       <r>   41.9584    0.0000 </r>
       <r>   44.5785    0.0000 </r>
      </set>
      <set comment="kpoint 69">
       <r>    6.5725    1.0000 </r>
       <r>    7.3144    1.0000 </r>
       <r>   12.0040    1.0000 </r>
       <r>   13.6107    1.0000 </r>
       <r>   15.5966    0.0000 </r>
       <r>   18.8377    0.0000 </r>
       <r>   24.6588    0.0000 </r>
       <r>   29.5821    0.0000 </r>
       <r>   29.9976    0.0000 </r>
       <r>   37.6503    0.0000 </r>
       <r>   41.9584    0.0000 </r>
       <r>   44.5786    0.0000 </r>
      </set>
      <set comment="kpoint 70">
       <r>    6.5725    1.0000 </r>
       <r>    7.3144    1.0000 </r>
       <r>   12.0040    1.0000 </r>
       <r>   13.6106    1.0000 </r>
       <r>   15.5966    0.0000 </r>
       <r>   18.8377    0.0000 </r>
       <r>   24.6590    0.0000 </r>
       <r>   29.5820    0.0000 </r>
       <r>   29.9974    0.0000 </r>
       <r>   37.6502    0.0000 </r>
       <r>   41.9586    0.0000 </r>
       <r>   44.5784    0.0000 </r>
      </set>
      <set comment="kpoint 71">
       <r>    6.5725    1.0000 </r>
       <r>    7.3144    1.0000 </r>
       <r>   12.0040    1.0000 </r>
       <r>   13.6107    1.0000 </r>
       <r>   15.5966    0.0000 </r>
       <r>   18.8378    0.0000 </r>
       <r>   24.6589    0.0000 </r>
       <r>   29.5819    0.0000 </r>
       <r>   29.9976    0.0000 </r>
       <r>   37.6502    0.0000 </r>
       <r>   41.9584    0.0000 </r>
       <r>   44.5785    0.0000 </r>
      </set>
      <set comment="kpoint 72">
       <r>    6.5725    1.0000 </r>
       <r>    7.3144    1.0000 </r>
       <r>   12.0040    1.0000 </r>
       <r>   13.6107    1.0000 </r>
       <r>   15.5966    0.0000 </r>
       <r>   18.8377    0.0000 </r>
       <r>   24.6588    0.0000 </r>
       <r>   29.5821    0.0000 </r>
       <r>   29.9976    0.0000 </r>
       <r>   37.6503    0.0000 </r>
       <r>   41.9584    0.0000 </r>
       <r>   44.5786    0.0000 </r>
      </set>
      <set comment="kpoint 73">
       <r>    6.5725    1.0000 </r>
       <r>    7.3144    1.0000 </r>
       <r>   12.0040    1.0000 </r>
       <r>   13.6106    1.0000 </r>
       <r>   15.5966    0.0000 </r>
       <r>   18.8377    0.0000 </r>
       <r>   24.6590    0.0000 </r>
       <r>   29.5820    0.0000 </r>
       <r>   29.9974    0.0000 </r>
       <r>   37.6502    0.0000 </r>
       <r>   41.9586    0.0000 </r>
       <r>   44.5785    0.0000 </r>
      </set>
      <set comment="kpoint 74">
       <r>    7.4123    1.0000 </r>
       <r>    8.7329    1.0000 </r>
       <r>   10.2802    1.0000 </r>
       <r>   12.6048    1.0000 </r>
       <r>   14.3375    1.0000 </r>
       <r>   20.1958    0.0000 </r>
       <r>   25.5084    0.0000 </r>
       <r>   26.6007    0.0000 </r>
       <r>   33.8755    0.0000 </r>
       <r>   35.3614    0.0000 </r>
       <r>   42.8805    0.0000 </r>
       <r>   44.1454    0.0000 </r>
      </set>
      <set comment="kpoint 75">
       <r>    7.4123    1.0000 </r>
       <r>    8.7329    1.0000 </r>
       <r>   10.2802    1.0000 </r>
       <r>   12.6048    1.0000 </r>
       <r>   14.3375    1.0000 </r>
       <r>   20.1958    0.0000 </r>
       <r>   25.5084    0.0000 </r>
       <r>   26.6007    0.0000 </r>
       <r>   33.8755    0.0000 </r>
       <r>   35.3613    0.0000 </r>
       <r>   42.8805    0.0000 </r>
       <r>   44.1454    0.0000 </r>
      </set>
      <set comment="kpoint 76">
       <r>    7.4123    1.0000 </r>
       <r>    8.7329    1.0000 </r>
       <r>   10.2802    1.0000 </r>
       <r>   12.6048    1.0000 </r>
       <r>   14.3375    1.0000 </r>
       <r>   20.1958    0.0000 </r>
       <r>   25.5084    0.0000 </r>
       <r>   26.6007    0.0000 </r>
       <r>   33.8755    0.0000 </r>
       <r>   35.3614    0.0000 </r>
       <r>   42.8805    0.0000 </r>
       <r>   44.1454    0.0000 </r>
      </set>
      <set comment="kpoint 77">
       <r>    7.4123    1.0000 </r>
       <r>    8.7329    1.0000 </r>
       <r>   10.2802    1.0000 </r>
       <r>   12.6049    1.0000 </r>
       <r>   14.3375    1.0000 </r>
       <r>   20.1957    0.0000 </r>
       <r>   25.5083    0.0000 </r>
       <r>   26.6007    0.0000 </r>
       <r>   33.8757    0.0000 </r>
       <r>   35.3614    0.0000 </r>
       <r>   42.8804    0.0000 </r>
       <r>   44.1455    0.0000 </r>
      </set>
      <set comment="kpoint 78">
       <r>    7.4123    1.0000 </r>
       <r>    8.7329    1.0000 </r>
       <r>   10.2802    1.0000 </r>
       <r>   12.6049    1.0000 </r>
       <r>   14.3375    1.0000 </r>
       <r>   20.1957    0.0000 </r>
       <r>   25.5083    0.0000 </r>
       <r>   26.6007    0.0000 </r>
       <r>   33.8757    0.0000 </r>
       <r>   35.3614    0.0000 </r>
       <r>   42.8804    0.0000 </r>
       <r>   44.1455    0.0000 </r>
      </set>
      <set comment="kpoint 79">
       <r>    7.4123    1.0000 </r>
       <r>    8.7329    1.0000 </r>
       <r>   10.2802    1.0000 </r>
       <r>   12.6049    1.0000 </r>
       <r>   14.3375    1.0000 </r>
       <r>   20.1957    0.0000 </r>
       <r>   25.5083    0.0000 </r>
       <r>   26.6007    0.0000 </r>
       <r>   33.8757    0.0000 </r>
       <r>   35.3614    0.0000 </r>
       <r>   42.8804    0.0000 </r>
       <r>   44.1455    0.0000 </r>
      </set>
      <set comment="kpoint 80">
       <r>    5.8480    1.0000 </r>
       <r>    6.4130    1.0000 </r>
       <r>   15.2677    0.9084 </r>
       <r>   15.9341    0.0000 </r>
       <r>   15.9341    0.0000 </r>
       <r>   16.7235    0.0000 </r>
       <r>   26.3920    0.0000 </r>
       <r>   27.1980    0.0000 </r>
       <r>   27.1983    0.0000 </r>
       <r>   37.7282    0.0000 </r>
       <r>   41.9774    0.0000 </r>
       <r>   44.8670    0.0000 </r>
      </set>
      <set comment="kpoint 81">
       <r>    5.8480    1.0000 </r>
       <r>    6.4130    1.0000 </r>
       <r>   15.2677    0.9084 </r>
       <r>   15.9341    0.0000 </r>
       <r>   15.9341    0.0000 </r>
       <r>   16.7235    0.0000 </r>
       <r>   26.3920    0.0000 </r>
       <r>   27.1980    0.0000 </r>
       <r>   27.1983    0.0000 </r>
       <r>   37.7282    0.0000 </r>
       <r>   41.9774    0.0000 </r>
       <r>   44.8670    0.0000 </r>
      </set>
      <set comment="kpoint 82">
       <r>    5.8480    1.0000 </r>
       <r>    6.4130    1.0000 </r>
       <r>   15.2677    0.9084 </r>
       <r>   15.9341    0.0000 </r>
       <r>   15.9341    0.0000 </r>
       <r>   16.7235    0.0000 </r>
       <r>   26.3920    0.0000 </r>
       <r>   27.1980    0.0000 </r>
       <r>   27.1983    0.0000 </r>
       <r>   37.7282    0.0000 </r>
       <r>   41.9774    0.0000 </r>
       <r>   44.8670    0.0000 </r>
      </set>
      <set comment="kpoint 83">
       <r>    7.7732    1.0000 </r>
       <r>    8.1408    1.0000 </r>
       <r>    9.4304    1.0000 </r>
       <r>   13.0394    1.0000 </r>
       <r>   13.7907    1.0000 </r>
       <r>   17.7440    0.0000 </r>
       <r>   27.2044    0.0000 </r>
       <r>   29.7614    0.0000 </r>
       <r>   32.3643    0.0000 </r>
       <r>   38.6671    0.0000 </r>
       <r>   39.5760    0.0000 </r>
       <r>   46.5032    0.0000 </r>
      </set>
      <set comment="kpoint 84">
       <r>    7.7732    1.0000 </r>
       <r>    8.1408    1.0000 </r>
       <r>    9.4304    1.0000 </r>
       <r>   13.0394    1.0000 </r>
       <r>   13.7907    1.0000 </r>
       <r>   17.7440    0.0000 </r>
       <r>   27.2044    0.0000 </r>
       <r>   29.7614    0.0000 </r>
       <r>   32.3643    0.0000 </r>
       <r>   38.6671    0.0000 </r>
       <r>   39.5760    0.0000 </r>
       <r>   46.5021    0.0000 </r>
      </set>
      <set comment="kpoint 85">
       <r>    7.7732    1.0000 </r>
       <r>    8.1408    1.0000 </r>
       <r>    9.4304    1.0000 </r>
       <r>   13.0394    1.0000 </r>
       <r>   13.7907    1.0000 </r>
       <r>   17.7440    0.0000 </r>
       <r>   27.2044    0.0000 </r>
       <r>   29.7614    0.0000 </r>
       <r>   32.3643    0.0000 </r>
       <r>   38.6671    0.0000 </r>
       <r>   39.5760    0.0000 </r>
       <r>   46.5020    0.0000 </r>
      </set>
      <set comment="kpoint 86">
       <r>    7.7732    1.0000 </r>
       <r>    8.1408    1.0000 </r>
       <r>    9.4305    1.0000 </r>
       <r>   13.0393    1.0000 </r>
       <r>   13.7907    1.0000 </r>
       <r>   17.7441    0.0000 </r>
       <r>   27.2045    0.0000 </r>
       <r>   29.7615    0.0000 </r>
       <r>   32.3642    0.0000 </r>
       <r>   38.6671    0.0000 </r>
       <r>   39.5759    0.0000 </r>
       <r>   46.5019    0.0000 </r>
      </set>
      <set comment="kpoint 87">
       <r>    7.7732    1.0000 </r>
       <r>    8.1408    1.0000 </r>
       <r>    9.4304    1.0000 </r>
       <r>   13.0394    1.0000 </r>
       <r>   13.7907    1.0000 </r>
       <r>   17.7440    0.0000 </r>
       <r>   27.2044    0.0000 </r>
       <r>   29.7614    0.0000 </r>
       <r>   32.3643    0.0000 </r>
       <r>   38.6671    0.0000 </r>
       <r>   39.5760    0.0000 </r>
       <r>   46.5020    0.0000 </r>
      </set>
      <set comment="kpoint 88">
       <r>    7.7732    1.0000 </r>
       <r>    8.1408    1.0000 </r>
       <r>    9.4305    1.0000 </r>
       <r>   13.0393    1.0000 </r>
       <r>   13.7907    1.0000 </r>
       <r>   17.7441    0.0000 </r>
       <r>   27.2045    0.0000 </r>
       <r>   29.7615    0.0000 </r>
       <r>   32.3642    0.0000 </r>
       <r>   38.6671    0.0000 </r>
       <r>   39.5759    0.0000 </r>
       <r>   46.5019    0.0000 </r>
      </set>
      <set comment="kpoint 89">
       <r>    7.7732    1.0000 </r>
       <r>    8.1408    1.0000 </r>
       <r>    9.4305    1.0000 </r>
       <r>   13.0393    1.0000 </r>
       <r>   13.7907    1.0000 </r>
       <r>   17.7441    0.0000 </r>
       <r>   27.2045    0.0000 </r>
       <r>   29.7615    0.0000 </r>
       <r>   32.3642    0.0000 </r>
       <r>   38.6671    0.0000 </r>
       <r>   39.5759    0.0000 </r>
       <r>   46.5043    0.0000 </r>
      </set>
      <set comment="kpoint 90">
       <r>    7.7732    1.0000 </r>
       <r>    8.1408    1.0000 </r>
       <r>    9.4305    1.0000 </r>
       <r>   13.0393    1.0000 </r>
       <r>   13.7907    1.0000 </r>
       <r>   17.7441    0.0000 </r>
       <r>   27.2045    0.0000 </r>
       <r>   29.7615    0.0000 </r>
       <r>   32.3642    0.0000 </r>
       <r>   38.6671    0.0000 </r>
       <r>   39.5759    0.0000 </r>
       <r>   46.5020    0.0000 </r>
      </set>
      <set comment="kpoint 91">
       <r>    7.7732    1.0000 </r>
       <r>    8.1408    1.0000 </r>
       <r>    9.4304    1.0000 </r>
       <r>   13.0394    1.0000 </r>
       <r>   13.7907    1.0000 </r>
       <r>   17.7440    0.0000 </r>
       <r>   27.2044    0.0000 </r>
       <r>   29.7614    0.0000 </r>
       <r>   32.3643    0.0000 </r>
       <r>   38.6671    0.0000 </r>
       <r>   39.5760    0.0000 </r>
       <r>   46.5020    0.0000 </r>
      </set>
      <set comment="kpoint 92">
       <r>    7.7732    1.0000 </r>
       <r>    8.1408    1.0000 </r>
       <r>    9.4305    1.0000 </r>
       <r>   13.0393    1.0000 </r>
       <r>   13.7907    1.0000 </r>
       <r>   17.7441    0.0000 </r>
       <r>   27.2045    0.0000 </r>
       <r>   29.7615    0.0000 </r>
       <r>   32.3642    0.0000 </r>
       <r>   38.6671    0.0000 </r>
       <r>   39.5759    0.0000 </r>
       <r>   46.5021    0.0000 </r>
      </set>
      <set comment="kpoint 93">
       <r>    7.7732    1.0000 </r>
       <r>    8.1408    1.0000 </r>
       <r>    9.4305    1.0000 </r>
       <r>   13.0393    1.0000 </r>
       <r>   13.7907    1.0000 </r>
       <r>   17.7441    0.0000 </r>
       <r>   27.2045    0.0000 </r>
       <r>   29.7615    0.0000 </r>
       <r>   32.3642    0.0000 </r>
       <r>   38.6671    0.0000 </r>
       <r>   39.5759    0.0000 </r>
       <r>   46.5019    0.0000 </r>
      </set>
      <set comment="kpoint 94">
       <r>    7.7732    1.0000 </r>
       <r>    8.1408    1.0000 </r>
       <r>    9.4304    1.0000 </r>
       <r>   13.0394    1.0000 </r>
       <r>   13.7907    1.0000 </r>
       <r>   17.7440    0.0000 </r>
       <r>   27.2044    0.0000 </r>
       <r>   29.7614    0.0000 </r>
       <r>   32.3643    0.0000 </r>
       <r>   38.6671    0.0000 </r>
       <r>   39.5760    0.0000 </r>
       <r>   46.5020    0.0000 </r>
      </set>
      <set comment="kpoint 95">
       <r>    8.1389    1.0000 </r>
       <r>    8.1742    1.0000 </r>
       <r>    9.8078    1.0000 </r>
       <r>   12.3080    1.0000 </r>
       <r>   15.0307    1.0000 </r>
       <r>   22.0077    0.0000 </r>
       <r>   22.1216    0.0000 </r>
       <r>   29.3184    0.0000 </r>
       <r>   30.7918    0.0000 </r>
       <r>   37.2109    0.0000 </r>
       <r>   42.2487    0.0000 </r>
       <r>   47.0620    0.0000 </r>
      </set>
      <set comment="kpoint 96">
       <r>    8.1389    1.0000 </r>
       <r>    8.1742    1.0000 </r>
       <r>    9.8078    1.0000 </r>
       <r>   12.3080    1.0000 </r>
       <r>   15.0307    1.0000 </r>
       <r>   22.0077    0.0000 </r>
       <r>   22.1216    0.0000 </r>
       <r>   29.3184    0.0000 </r>
       <r>   30.7918    0.0000 </r>
       <r>   37.2109    0.0000 </r>
       <r>   42.2487    0.0000 </r>
       <r>   47.0620    0.0000 </r>
      </set>
      <set comment="kpoint 97">
       <r>    8.1389    1.0000 </r>
       <r>    8.1742    1.0000 </r>
       <r>    9.8078    1.0000 </r>
       <r>   12.3080    1.0000 </r>
       <r>   15.0307    1.0000 </r>
       <r>   22.0078    0.0000 </r>
       <r>   22.1216    0.0000 </r>
       <r>   29.3184    0.0000 </r>
       <r>   30.7918    0.0000 </r>
       <r>   37.2109    0.0000 </r>
       <r>   42.2487    0.0000 </r>
       <r>   47.0617    0.0000 </r>
      </set>
      <set comment="kpoint 98">
       <r>    8.1389    1.0000 </r>
       <r>    8.1743    1.0000 </r>
       <r>    9.8077    1.0000 </r>
       <r>   12.3080    1.0000 </r>
       <r>   15.0307    1.0000 </r>
       <r>   22.0076    0.0000 </r>
       <r>   22.1216    0.0000 </r>
       <r>   29.3185    0.0000 </r>
       <r>   30.7919    0.0000 </r>
       <r>   37.2110    0.0000 </r>
       <r>   42.2486    0.0000 </r>
       <r>   47.0628    0.0000 </r>
      </set>
      <set comment="kpoint 99">
       <r>    8.1390    1.0000 </r>
       <r>    8.1743    1.0000 </r>
       <r>    9.8077    1.0000 </r>
       <r>   12.3079    1.0000 </r>
       <r>   15.0307    1.0000 </r>
       <r>   22.0077    0.0000 </r>
       <r>   22.1217    0.0000 </r>
       <r>   29.3185    0.0000 </r>
       <r>   30.7918    0.0000 </r>
       <r>   37.2109    0.0000 </r>
       <r>   42.2486    0.0000 </r>
       <r>   47.0621    0.0000 </r>
      </set>
      <set comment="kpoint 100">
       <r>    8.1389    1.0000 </r>
       <r>    8.1742    1.0000 </r>
       <r>    9.8078    1.0000 </r>
       <r>   12.3080    1.0000 </r>
       <r>   15.0307    1.0000 </r>
       <r>   22.0077    0.0000 </r>
       <r>   22.1216    0.0000 </r>
       <r>   29.3184    0.0000 </r>
       <r>   30.7918    0.0000 </r>
       <r>   37.2109    0.0000 </r>
       <r>   42.2487    0.0000 </r>
       <r>   47.0619    0.0000 </r>
      </set>
[...]
       </set>
       <set comment="band 5">
        <r>  0.0164  0.0029  0.0011  0.0004  0.0720  0.0023  0.0850  0.2399  0.5500 </r>
       </set>
       <set comment="band 6">
        <r>  0.5241  0.0526  0.0197  0.0066  0.0493  0.0089  0.0406  0.2005  0.0071 </r>
       </set>
       <set comment="band 7">
        <r>  0.0000  0.0357  0.3590  0.2531  0.0411  0.0890  0.2121  0.0060  0.0317 </r>
       </set>
       <set comment="band 8">
        <r>  0.0926  0.3848  0.1443  0.0481  0.0005  0.2327  0.1080  0.0135  0.0003 </r>
       </set>
       <set comment="band 9">
        <r>  0.0000  0.0566  0.0100  0.2499  0.2677  0.0349  0.0119  0.0961  0.1136 </r>
       </set>
       <set comment="band 10">
        <r>  0.0000  0.0672  0.0604  0.0947  0.0001  0.0219  0.0774  0.0190  0.0452 </r>
       </set>
       <set comment="band 11">
        <r>  0.0089  0.0082  0.0031  0.0010  0.2419  0.0028  0.1247  0.1209  0.0848 </r>
       </set>
       <set comment="band 12">
        <r>  0.0000  0.0019  0.5473  1.2838  0.0710  0.0011  0.0036  0.0465  0.0675 </r>
       </set>
      </set>
      <set comment="kpoint 102">
       <set comment="band 1">
        <r>  0.0000  0.0271  0.0019  0.0543  0.0086  0.5305  0.0000  0.2653  0.0687 </r>
       </set>
       <set comment="band 2">
        <r>  0.1062  0.0821  0.0000  0.0411  0.0003  0.2401  0.0747  0.4802  0.0000 </r>
       </set>
       <set comment="band 3">
        <r>  0.0000  0.0129  0.1940  0.0258  0.0829  0.0186  0.0000  0.0093  0.6632 </r>
       </set>
       <set comment="band 4">
        <r>  0.0133  0.0280  0.0000  0.0140  0.7794  0.0007  0.0280  0.0015  0.0974 </r>
       </set>
       <set comment="band 5">
        <r>  0.0164  0.0029  0.0000  0.0015  0.0308  0.0435  0.7841  0.0870  0.0039 </r>
       </set>
       <set comment="band 6">
        <r>  0.5241  0.0526  0.0000  0.0263  0.0009  0.0573  0.1335  0.1146  0.0001 </r>
       </set>
       <set comment="band 7">
        <r>  0.0000  0.0357  0.5406  0.0715  0.0246  0.1054  0.0000  0.0527  0.1970 </r>
       </set>
       <set comment="band 8">
        <r>  0.0926  0.3848  0.0000  0.1924  0.1845  0.0488  0.0012  0.0976  0.0231 </r>
       </set>
       <set comment="band 9">
        <r>  0.0000  0.0566  0.1467  0.1132  0.0094  0.2932  0.0000  0.1466  0.0750 </r>
       </set>
       <set comment="band 10">
        <r>  0.0000  0.0672  0.0206  0.1345  0.0174  0.0045  0.0000  0.0023  0.1394 </r>
       </set>
       <set comment="band 11">
        <r>  0.0089  0.0082  0.0000  0.0041  0.0852  0.1595  0.0008  0.3190  0.0106 </r>
       </set>
       <set comment="band 12">
        <r>  0.0000  0.0070  1.7158  0.0151  0.0108  0.0630  0.0000  0.0315  0.0859 </r>
       </set>
      </set>
      <set comment="kpoint 103">
       <set comment="band 1">
        <r>  0.0000  0.0401  0.0324  0.0108  0.2418  0.0806  0.3095  0.1377  0.1034 </r>
       </set>
       <set comment="band 2">
        <r>  0.1062  0.0000  0.0308  0.0924  0.0007  0.0020  0.3111  0.0843  0.3973 </r>
       </set>
       <set comment="band 3">
        <r>  0.0000  0.2240  0.0066  0.0022  0.3025  0.1008  0.2085  0.0927  0.0695 </r>
       </set>
       <set comment="band 4">
        <r>  0.0133  0.0000  0.0105  0.0315  0.0881  0.2643  0.0380  0.3780  0.1385 </r>
       </set>
       <set comment="band 5">
        <r>  0.0164  0.0000  0.0011  0.0033  0.1427  0.4282  0.0227  0.2532  0.1023 </r>
       </set>
       <set comment="band 6">
        <r>  0.5241  0.0000  0.0197  0.0592  0.0077  0.0229  0.0938  0.0101  0.1720 </r>
       </set>
       <set comment="band 7">
        <r>  0.0000  0.6232  0.0185  0.0062  0.2668  0.0890  0.0135  0.0060  0.0045 </r>
       </set>
       <set comment="band 8">
        <r>  0.0926  0.0000  0.1443  0.4329  0.0247  0.0740  0.0196  0.0328  0.2040 </r>
       </set>
       <set comment="band 9">
        <r>  0.0000  0.0056  0.2332  0.0777  0.1048  0.0349  0.2163  0.0961  0.0721 </r>
       </set>
       <set comment="band 10">
        <r>  0.0000  0.0202  0.1516  0.0505  0.0657  0.0219  0.0427  0.0190  0.0142 </r>
       </set>
       <set comment="band 11">
        <r>  0.0089  0.0000  0.0031  0.0093  0.0010  0.0029  0.2441  0.2490  0.0782 </r>
       </set>
       <set comment="band 12">
        <r>  0.0000  1.4016  0.2834  0.0977  0.0040  0.0014  0.1038  0.0461  0.0346 </r>
       </set>
      </set>
      <set comment="kpoint 104">
       <set comment="band 1">
        <r>  0.0000  0.0167  0.0500  0.0167  0.5925  0.1975  0.0467  0.0207  0.0156 </r>
       </set>
       <set comment="band 2">
        <r>  0.1062  0.0000  0.0308  0.0924  0.0661  0.1983  0.2322  0.1620  0.1368 </r>
       </set>
       <set comment="band 3">
        <r>  0.0000  0.0605  0.1292  0.0431  0.0984  0.0328  0.3616  0.1607  0.1205 </r>
       </set>
       <set comment="band 4">
        <r>  0.0133  0.0000  0.0105  0.0315  0.0791  0.2373  0.0637  0.4265  0.1005 </r>
       </set>
       <set comment="band 5">
        <r>  0.0164  0.0000  0.0011  0.0033  0.0663  0.1988  0.0850  0.0434  0.5558 </r>
       </set>
       <set comment="band 6">
        <r>  0.5241  0.0000  0.0197  0.0592  0.0509  0.1527  0.0406  0.0567  0.0055 </r>
       </set>
       <set comment="band 7">
        <r>  0.0000  0.1691  0.3590  0.1197  0.0021  0.0007  0.2121  0.0942  0.0707 </r>
       </set>
       <set comment="band 8">
        <r>  0.0926  0.0000  0.1443  0.4329  0.0009  0.0026  0.1080  0.2437  0.0000 </r>
       </set>
       <set comment="band 9">
        <r>  0.0000  0.3032  0.0100  0.0033  0.3773  0.1258  0.0119  0.0053  0.0040 </r>
       </set>
       <set comment="band 10">
        <r>  0.0000  0.1418  0.0604  0.0201  0.0195  0.0065  0.0774  0.0344  0.0258 </r>
       </set>
       <set comment="band 11">
        <r>  0.0089  0.0000  0.0031  0.0093  0.0398  0.1193  0.1247  0.0043  0.2869 </r>
       </set>
       <set comment="band 12">
        <r>  0.0000  1.0729  0.5967  0.2053  0.1365  0.0450  0.0033  0.0014  0.0011 </r>
       </set>
      </set>
      <set comment="kpoint 105">
       <set comment="band 1">
        <r>  0.0000  0.0271  0.0324  0.0238  0.3415  0.1975  0.3097  0.0207  0.0035 </r>
       </set>
       <set comment="band 2">
        <r>  0.1062  0.0821  0.0308  0.0103  0.1733  0.0670  0.3109  0.0193  0.2248 </r>
       </set>
       <set comment="band 3">
        <r>  0.0000  0.0129  0.0066  0.2133  0.0687  0.0328  0.2085  0.1607  0.3033 </r>
       </set>
       <set comment="band 4">
        <r>  0.0133  0.0280  0.0105  0.0035  0.2161  0.5641  0.0380  0.0783  0.0106 </r>
       </set>
       <set comment="band 5">
        <r>  0.0164  0.0029  0.0011  0.0004  0.0086  0.0657  0.0227  0.6157  0.2364 </r>
       </set>
       <set comment="band 6">
        <r>  0.5241  0.0526  0.0197  0.0066  0.0371  0.0211  0.0939  0.0119  0.1425 </r>
       </set>
       <set comment="band 7">
        <r>  0.0000  0.0357  0.0185  0.5936  0.1293  0.0007  0.0135  0.0942  0.1420 </r>
       </set>
       <set comment="band 8">
        <r>  0.0926  0.3848  0.1443  0.0481  0.1649  0.0684  0.0196  0.0384  0.0638 </r>
       </set>
       <set comment="band 9">
        <r>  0.0000  0.0566  0.2332  0.0267  0.1768  0.1258  0.2163  0.0053  0.0000 </r>
       </set>
       <set comment="band 10">
        <r>  0.0000  0.0672  0.1516  0.0035  0.0155  0.0065  0.0427  0.0344  0.0645 </r>
       </set>
       <set comment="band 11">
        <r>  0.0089  0.0082  0.0031  0.0010  0.0400  0.2047  0.2441  0.0471  0.0392 </r>
       </set>
       <set comment="band 12">
        <r>  0.0000  0.0008  0.3998  1.3499  0.0263  0.0467  0.1065  0.0018  0.0124 </r>
       </set>
      </set>
      <set comment="kpoint 106">
       <set comment="band 1">
        <r>  0.0000  0.0272  0.0500  0.0062  0.4587  0.0806  0.0466  0.1375  0.1496 </r>
       </set>
       <set comment="band 2">
        <r>  0.1062  0.0821  0.0308  0.0103  0.1868  0.0533  0.2323  0.3070  0.0159 </r>
       </set>
       <set comment="band 3">
        <r>  0.0000  0.0129  0.1292  0.0906  0.0007  0.1008  0.3615  0.0927  0.2183 </r>
       </set>
       <set comment="band 4">
        <r>  0.0133  0.0280  0.0105  0.0035  0.1747  0.6054  0.0637  0.0583  0.0049 </r>
       </set>
       <set comment="band 5">
        <r>  0.0164  0.0029  0.0011  0.0004  0.0720  0.0023  0.0850  0.2399  0.5500 </r>
       </set>
       <set comment="band 6">
        <r>  0.5241  0.0525  0.0198  0.0065  0.0492  0.0089  0.0407  0.2005  0.0071 </r>
       </set>
       <set comment="band 7">
        <r>  0.0000  0.0358  0.3589  0.2531  0.0411  0.0890  0.2120  0.0060  0.0317 </r>
       </set>
       <set comment="band 8">
        <r>  0.0926  0.3848  0.1443  0.0481  0.0005  0.2327  0.1080  0.0135  0.0003 </r>
       </set>
       <set comment="band 9">
        <r>  0.0000  0.0566  0.0100  0.2499  0.2677  0.0349  0.0119  0.0961  0.1136 </r>
       </set>
       <set comment="band 10">
        <r>  0.0000  0.0672  0.0604  0.0947  0.0001  0.0219  0.0774  0.0190  0.0452 </r>
       </set>
       <set comment="band 11">
        <r>  0.0089  0.0082  0.0031  0.0010  0.2419  0.0028  0.1247  0.1209  0.0848 </r>
       </set>
       <set comment="band 12">
        <r>  0.0000  0.0050  0.5339  1.3386  0.0699  0.0013  0.0033  0.0456  0.0658 </r>
       </set>
      </set>
      <set comment="kpoint 107">
       <set comment="band 1">
        <r>  0.0420  0.0217  0.0325  0.0108  0.5528  0.0173  0.2073  0.0087  0.0691 </r>
       </set>
       <set comment="band 2">
        <r>  0.0000  0.0267  0.0401  0.0134  0.2115  0.0000  0.7137  0.0000  0.0264 </r>
       </set>
       <set comment="band 3">
        <r>  0.0000  0.0890  0.0000  0.1780  0.0408  0.1225  0.0000  0.2451  0.3268 </r>
       </set>
       <set comment="band 4">
        <r>  0.0446  0.0076  0.0114  0.0038  0.0168  0.5719  0.0063  0.2860  0.0021 </r>
       </set>
       <set comment="band 5">
        <r>  0.0000  0.0000  0.0000  0.0000  0.0550  0.1649  0.0000  0.3298  0.4397 </r>
       </set>
       <set comment="band 6">
        <r>  0.0000  0.2407  0.0000  0.4815  0.0192  0.0576  0.0000  0.1152  0.1537 </r>
       </set>
       <set comment="band 7">
        <r>  0.6189  0.0143  0.0215  0.0072  0.0498  0.0717  0.0187  0.0359  0.0062 </r>
       </set>
       <set comment="band 8">
        <r>  0.0000  0.2540  0.3811  0.1270  0.0351  0.0000  0.1184  0.0000  0.0044 </r>
       </set>
       <set comment="band 9">
        <r>  0.0183  0.1242  0.1863  0.0621  0.3413  0.0674  0.1280  0.0337  0.0427 </r>
       </set>
       <set comment="band 10">
        <r>  0.0000  0.0000  0.0000  0.0000  0.2153  0.0000  0.7267  0.0000  0.0269 </r>
       </set>
       <set comment="band 11">
        <r>  0.1823  0.0744  0.1115  0.0372  0.1161  0.0123  0.0435  0.0061  0.0145 </r>
       </set>
       <set comment="band 12">
        <r>  0.0000  0.0015  0.0000  0.0031  0.0164  0.0493  0.0000  0.0986  0.1315 </r>
       </set>
      </set>
      <set comment="kpoint 108">
       <set comment="band 1">
        <r>  0.0420  0.0217  0.0000  0.0433  0.0664  0.5037  0.0249  0.2519  0.0083 </r>
       </set>
       <set comment="band 2">
        <r>  0.0000  0.0267  0.0401  0.0134  0.0529  0.1586  0.0000  0.3172  0.4229 </r>
       </set>
       <set comment="band 3">
        <r>  0.0000  0.0890  0.1335  0.0445  0.0408  0.1225  0.0000  0.2451  0.3267 </r>
       </set>
       <set comment="band 4">
        <r>  0.0446  0.0076  0.0000  0.0152  0.5180  0.0707  0.1943  0.0353  0.0648 </r>
       </set>
       <set comment="band 5">
        <r>  0.0000  0.0000  0.0000  0.0000  0.2199  0.0000  0.7421  0.0000  0.0275 </r>
       </set>
       <set comment="band 6">
        <r>  0.0000  0.2407  0.3611  0.1204  0.0192  0.0576  0.0000  0.1152  0.1537 </r>
       </set>
       <set comment="band 7">
        <r>  0.6189  0.0143  0.0000  0.0287  0.1180  0.0035  0.0442  0.0018  0.0147 </r>
       </set>
       <set comment="band 8">
        <r>  0.0000  0.2540  0.3811  0.1270  0.0088  0.0263  0.0000  0.0526  0.0702 </r>
       </set>
       <set comment="band 9">
        <r>  0.0183  0.1242  0.0000  0.2485  0.0045  0.4042  0.0017  0.2021  0.0006 </r>
       </set>
       <set comment="band 10">
        <r>  0.0000  0.0000  0.0000  0.0000  0.0538  0.1615  0.0000  0.3230  0.4306 </r>
       </set>
       <set comment="band 11">
        <r>  0.1823  0.0744  0.0000  0.1487  0.0709  0.0575  0.0266  0.0287  0.0089 </r>
       </set>
       <set comment="band 12">
        <r>  0.0000  0.0015  0.0023  0.0008  0.0164  0.0493  0.0000  0.0986  0.1315 </r>
       </set>
      </set>
      <set comment="kpoint 109">
       <set comment="band 1">
        <r>  0.0420  0.0217  0.0325  0.0108  0.2360  0.3342  0.0885  0.1671  0.0295 </r>
       </set>
       <set comment="band 2">
        <r>  0.0000  0.0267  0.0000  0.0535  0.0529  0.1586  0.0000  0.3172  0.4229 </r>
       </set>
       <set comment="band 3">
        <r>  0.0000  0.0890  0.1335  0.0445  0.1634  0.0000  0.5514  0.0000  0.0204 </r>
       </set>
       <set comment="band 4">
        <r>  0.0446  0.0076  0.0114  0.0038  0.3482  0.2405  0.1306  0.1202  0.0435 </r>
       </set>
       <set comment="band 5">
        <r>  0.0000  0.0000  0.0000  0.0000  0.0550  0.1649  0.0000  0.3298  0.4397 </r>
       </set>
       <set comment="band 6">
        <r>  0.0000  0.2407  0.3611  0.1204  0.0768  0.0000  0.2593  0.0000  0.0096 </r>
       </set>
       <set comment="band 7">
        <r>  0.6189  0.0143  0.0215  0.0072  0.0145  0.1070  0.0054  0.0535  0.0018 </r>
       </set>
       <set comment="band 8">
        <r>  0.0000  0.2541  0.0000  0.5081  0.0088  0.0263  0.0000  0.0526  0.0702 </r>
       </set>
       <set comment="band 9">
        <r>  0.0183  0.1242  0.1863  0.0621  0.2673  0.1414  0.1002  0.0707  0.0334 </r>
       </set>
       <set comment="band 10">
        <r>  0.0000  0.0000  0.0000  0.0000  0.0538  0.1615  0.0000  0.3229  0.4306 </r>
       </set>
       <set comment="band 11">
        <r>  0.1823  0.0744  0.1115  0.0372  0.0055  0.1228  0.0021  0.0614  0.0007 </r>
       </set>
       <set comment="band 12">
        <r>  0.0000  0.0015  0.0023  0.0008  0.0657  0.0000  0.2219  0.0000  0.0082 </r>
       </set>
      </set>
      <set comment="kpoint 110">
       <set comment="band 1">
        <r>  0.0420  0.0217  0.0325  0.0108  0.5528  0.0173  0.2073  0.0087  0.0691 </r>
       </set>
       <set comment="band 2">
        <r>  0.0000  0.0267  0.0401  0.0134  0.2115  0.0000  0.7137  0.0000  0.0264 </r>
       </set>
       <set comment="band 3">
        <r>  0.0000  0.0890  0.0000  0.1780  0.0408  0.1225  0.0000  0.2451  0.3268 </r>
       </set>
       <set comment="band 4">
        <r>  0.0446  0.0076  0.0114  0.0038  0.0168  0.5719  0.0063  0.2860  0.0021 </r>
       </set>
       <set comment="band 5">
        <r>  0.0000  0.0000  0.0000  0.0000  0.0550  0.1649  0.0000  0.3298  0.4397 </r>
       </set>
       <set comment="band 6">
        <r>  0.0000  0.2407  0.0000  0.4815  0.0192  0.0576  0.0000  0.1153  0.1537 </r>
       </set>
       <set comment="band 7">
        <r>  0.6189  0.0143  0.0215  0.0072  0.0498  0.0717  0.0187  0.0358  0.0062 </r>
       </set>
       <set comment="band 8">
        <r>  0.0000  0.2540  0.3811  0.1270  0.0351  0.0000  0.1184  0.0000  0.0044 </r>
       </set>
       <set comment="band 9">
        <r>  0.0183  0.1242  0.1863  0.0621  0.3413  0.0674  0.1280  0.0337  0.0427 </r>
       </set>
       <set comment="band 10">
        <r>  0.0000  0.0000  0.0000  0.0000  0.2153  0.0000  0.7267  0.0000  0.0269 </r>
       </set>
       <set comment="band 11">
        <r>  0.1823  0.0744  0.1115  0.0372  0.1161  0.0123  0.0435  0.0061  0.0145 </r>
       </set>
       <set comment="band 12">
        <r>  0.0000  0.0015  0.0000  0.0031  0.0164  0.0493  0.0000  0.0986  0.1315 </r>
       </set>
      </set>
      <set comment="kpoint 111">
       <set comment="band 1">
        <r>  0.0420  0.0217  0.0000  0.0433  0.0664  0.5037  0.0249  0.2519  0.0083 </r>
       </set>
       <set comment="band 2">
        <r>  0.0000  0.0267  0.0401  0.0134  0.0529  0.1586  0.0000  0.3172  0.4229 </r>
       </set>
       <set comment="band 3">
        <r>  0.0000  0.0890  0.1335  0.0445  0.0408  0.1225  0.0000  0.2451  0.3267 </r>
       </set>
       <set comment="band 4">
        <r>  0.0446  0.0076  0.0000  0.0152  0.5180  0.0707  0.1943  0.0353  0.0648 </r>
       </set>
       <set comment="band 5">
        <r>  0.0000  0.0000  0.0000  0.0000  0.2199  0.0000  0.7421  0.0000  0.0275 </r>
       </set>
       <set comment="band 6">
        <r>  0.0000  0.2407  0.3611  0.1204  0.0192  0.0576  0.0000  0.1153  0.1537 </r>
       </set>
       <set comment="band 7">
        <r>  0.6189  0.0143  0.0000  0.0287  0.1180  0.0035  0.0442  0.0018  0.0148 </r>
       </set>
       <set comment="band 8">
        <r>  0.0000  0.2541  0.3811  0.1270  0.0088  0.0263  0.0000  0.0526  0.0702 </r>
       </set>
       <set comment="band 9">
        <r>  0.0183  0.1242  0.0000  0.2485  0.0045  0.4042  0.0017  0.2021  0.0006 </r>
       </set>
       <set comment="band 10">
        <r>  0.0000  0.0000  0.0000  0.0000  0.0538  0.1615  0.0000  0.3230  0.4306 </r>
       </set>
       <set comment="band 11">
        <r>  0.1823  0.0744  0.0000  0.1487  0.0709  0.0574  0.0266  0.0287  0.0089 </r>
       </set>
       <set comment="band 12">
        <r>  0.0000  0.0015  0.0023  0.0008  0.0164  0.0493  0.0000  0.0986  0.1315 </r>
       </set>
      </set>
      <set comment="kpoint 112">
       <set comment="band 1">
        <r>  0.0420  0.0217  0.0325  0.0108  0.2360  0.3342  0.0885  0.1671  0.0295 </r>
       </set>
       <set comment="band 2">
        <r>  0.0000  0.0267  0.0000  0.0535  0.0529  0.1586  0.0000  0.3172  0.4229 </r>
       </set>
       <set comment="band 3">
        <r>  0.0000  0.0890  0.1335  0.0445  0.1634  0.0000  0.5514  0.0000  0.0204 </r>
       </set>
       <set comment="band 4">
        <r>  0.0446  0.0076  0.0114  0.0038  0.3482  0.2405  0.1306  0.1202  0.0435 </r>
       </set>
       <set comment="band 5">
        <r>  0.0000  0.0000  0.0000  0.0000  0.0550  0.1649  0.0000  0.3298  0.4397 </r>
       </set>
       <set comment="band 6">
        <r>  0.0000  0.2407  0.3611  0.1204  0.0768  0.0000  0.2593  0.0000  0.0096 </r>
       </set>
       <set comment="band 7">
        <r>  0.6189  0.0143  0.0215  0.0072  0.0145  0.1070  0.0054  0.0535  0.0018 </r>
       </set>
       <set comment="band 8">
        <r>  0.0000  0.2540  0.0000  0.5081  0.0088  0.0263  0.0000  0.0526  0.0702 </r>
       </set>
       <set comment="band 9">
        <r>  0.0183  0.1242  0.1863  0.0621  0.2673  0.1414  0.1002  0.0707  0.0334 </r>
       </set>
       <set comment="band 10">
        <r>  0.0000  0.0000  0.0000  0.0000  0.0538  0.1615  0.0000  0.3230  0.4306 </r>
       </set>
       <set comment="band 11">
        <r>  0.1823  0.0744  0.1115  0.0372  0.0055  0.1228  0.0021  0.0614  0.0007 </r>
       </set>
       <set comment="band 12">
        <r>  0.0000  0.0015  0.0023  0.0008  0.0657  0.0000  0.2219  0.0000  0.0082 </r>
       </set>
      </set>
     </set>
    </set>
   </array>
  </projected>
 </calculation>
 <structure name="finalpos" >
  <crystal>
   <varray name="basis" >
    <v>       2.25955100       0.00000400       1.30456600 </v>
    <v>       0.75318900       2.13032300       1.30456600 </v>
    <v>       0.00000600       0.00000400       2.60911100 </v>
   </varray>
   <i name="volume">     12.55911508 </i>
   <varray name="rec_basis" >
    <v>       0.44256653      -0.15647168      -0.00000078 </v>
    <v>      -0.00000042       0.46941297      -0.00000072 </v>
    <v>      -0.22128484      -0.15647190       0.38327306 </v>
   </varray>
  </crystal>
  <varray name="positions" >
   <v>       0.00000000       0.00000000       0.00000000 </v>
  </varray>
 </structure>
</modeling>
