unknown system                          
    1.000000000000000     
     2.402521    0.000000    1.387096
     0.800840    2.265118    1.387096
     0.000000    0.000000    2.774192
   Pt
     1
Direct
  0.000000  0.000000  0.000000
 
   24   24   24
  57.013      54.996      49.810      43.297      36.838      30.685      24.543      18.496      13.211      9.3680    
  7.0833      5.9099      5.5306      5.9099      7.0833      9.3680      13.211      18.496      24.543      30.685    
  36.838      43.297      49.810      54.996      54.996      51.410      45.646      39.337      33.226      27.193    
  21.107      15.420      10.890      7.9309      6.3123      5.5620      5.5625      6.3128      7.9304      10.890    
  15.421      21.111      27.196      33.227      39.334      45.642      51.406      54.995      49.810      45.646    
  40.246      34.588      28.865      22.978      17.213      12.282      8.7787      6.7207      5.6461      5.3000    
  5.6464      6.7204      8.7777      12.282      17.215      22.982      28.868      34.588      40.242      45.640    
  49.806      51.406      43.297      39.337      34.588      29.437      23.948      18.370      13.335      9.5052    
  7.0916      5.7540      5.1264      5.1265      5.7541      7.0912      9.5044      13.335      18.371      23.950    
  29.439      34.588      39.334      43.294      45.640      45.642      36.838      33.226      28.865      23.948    
  18.769      13.899      9.9937      7.3771      5.8527      5.0244      4.7626      5.0247      5.8533      7.3775    
  9.9937      13.899      18.768      23.948      28.865      33.227      36.838      39.334      40.242      39.334    
  30.685      27.193      22.978      18.370      13.899      10.166      7.5327      5.9192      4.9713      4.5347    
  4.5347      4.9716      5.9200      7.5339      10.167      13.900      18.370      22.977      27.192      30.684    
  33.227      34.588      34.588      33.227      24.543      21.107      17.213      13.335      9.9937      7.5327    
  5.9423      4.9496      4.4143      4.2480      4.4136      4.9490      5.9424      7.5338      9.9955      13.337    
  17.214      21.106      24.540      27.192      28.865      29.439      28.868      27.196      18.496      15.420    
  12.282      9.5052      7.3771      5.9192      4.9496      4.3773      4.1197      4.1194      4.3763      4.9482    
  5.9180      7.3771      9.5066      12.284      15.421      18.494      21.106      22.977      23.948      23.950    
  22.982      21.111      13.211      10.890      8.7788      7.0916      5.8527      4.9713      4.4143      4.1197    
  4.0294      4.1202      4.4143      4.9700      5.8507      7.0901      8.7787      10.891      13.211      15.421    
  17.214      18.370      18.768      18.371      17.215      15.421      9.3680      7.9309      6.7207      5.7541    
  5.0244      4.5347      4.2480      4.1194      4.1202      4.2499      4.5360      5.0242      5.7525      6.7188    
  7.9297      9.3682      10.891      12.284      13.337      13.900      13.899      13.335      12.282      10.890    
  7.0833      6.3123      5.6461      5.1264      4.7626      4.5347      4.4136      4.3763      4.4143      4.5360    
  4.7643      5.1278      5.6465      6.3114      7.0819      7.9297      8.7787      9.5066      9.9955      10.167    
  9.9937      9.5044      8.7777      7.9304      5.9099      5.5620      5.3000      5.1265      5.0247      4.9716    
  4.9490      4.9482      4.9700      5.0242      5.1278      5.3023      5.5637      5.9098      6.3114      6.7188    
  7.0901      7.3771      7.5338      7.5339      7.3776      7.0912      6.7204      6.3128      5.5306      5.5625    
  5.6464      5.7541      5.8533      5.9200      5.9425      5.9180      5.8507      5.7525      5.6465      5.5637    
  5.5322      5.5637      5.6465      5.7525      5.8507      5.9180      5.9425      5.9200      5.8533      5.7541    
  5.6464      5.5625      5.9099      6.3128      6.7204      7.0912      7.3776      7.5339      7.5338      7.3771    
  7.0901      6.7188      6.3114      5.9098      5.5637      5.3023      5.1278      5.0242      4.9700      4.9482    
  4.9490      4.9716      5.0247      5.1265      5.3000      5.5620      7.0833      7.9304      8.7777      9.5044    
  9.9937      10.167      9.9955      9.5066      8.7787      7.9297      7.0819      6.3114      5.6465      5.1278    
  4.7643      4.5360      4.4143      4.3763      4.4136      4.5347      4.7626      5.1264      5.6461      6.3123    
  9.3680      10.890      12.282      13.335      13.899      13.900      13.337      12.284      10.891      9.3682    
  7.9297      6.7188      5.7525      5.0242      4.5360      4.2499      4.1202      4.1194      4.2480      4.5347    
  5.0244      5.7541      6.7207      7.9309      13.211      15.421      17.215      18.371      18.768      18.370    
  17.214      15.421      13.211      10.891      8.7787      7.0901      5.8507      4.9700      4.4143      4.1202    
  4.0294      4.1197      4.4143      4.9713      5.8527      7.0916      8.7788      10.890      18.496      21.111    
  22.982      23.950      23.948      22.977      21.106      18.494      15.421      12.284      9.5066      7.3771    
  5.9180      4.9482      4.3763      4.1194      4.1197      4.3773      4.9496      5.9192      7.3771      9.5052    
  12.282      15.420      24.543      27.196      28.868      29.439      28.865      27.192      24.540      21.106    
  17.214      13.337      9.9955      7.5338      5.9424      4.9490      4.4136      4.2480      4.4143      4.9496    
  5.9423      7.5327      9.9937      13.335      17.213      21.107      30.685      33.227      34.588      34.588    
  33.227      30.684      27.192      22.977      18.370      13.900      10.167      7.5339      5.9200      4.9716    
  4.5347      4.5347      4.9713      5.9192      7.5327      10.166      13.899      18.370      22.978      27.193    
  36.838      39.334      40.242      39.334      36.838      33.227      28.865      23.948      18.768      13.899    
  9.9937      7.3775      5.8533      5.0247      4.7626      5.0244      5.8527      7.3771      9.9937      13.899    
  18.769      23.948      28.865      33.226      43.297      45.642      45.640      43.294      39.334      34.588    
  29.439      23.950      18.371      13.335      9.5044      7.0912      5.7541      5.1265      5.1264      5.7540    
  7.0916      9.5052      13.335      18.370      23.948      29.437      34.588      39.337      49.810      51.406    
  49.806      45.640      40.242      34.588      28.868      22.982      17.215      12.282      8.7777      6.7204    
  5.6464      5.3000      5.6461      6.7207      8.7787      12.282      17.213      22.978      28.865      34.588    
  40.246      45.646      54.996      54.995      51.406      45.642      39.334      33.227      27.196      21.111    
  15.421      10.890      7.9304      6.3128      5.5625      5.5620      6.3123      7.9309      10.890      15.420    
  21.107      27.193      33.226      39.337      45.646      51.410      54.996      51.410      45.646      39.337    
  33.226      27.193      21.107      15.420      10.890      7.9309      6.3123      5.5620      5.5625      6.3128    
  7.9304      10.890      15.421      21.111      27.196      33.227      39.334      45.642      51.406      54.995    
  51.410      46.849      41.022      35.074      29.229      23.315      17.525      12.533      8.9520      6.8354    
  5.7344      5.3791      5.7348      6.8351      8.9510      12.533      17.528      23.320      29.233      35.073    
  41.017      46.843      51.406      53.169      45.646      41.022      35.714      30.256      24.657      19.016    
  13.870      9.8864      7.3382      5.9301      5.2696      5.2697      5.9301      7.3374      9.8852      13.870    
  19.019      24.661      30.258      35.712      41.018      45.641      48.447      48.449      39.337      35.074    
  30.256      25.104      19.779      14.730      10.594      7.7625      6.1093      5.2174      4.9335      5.2179    
  6.1095      7.7616      10.592      14.729      19.779      25.105      30.257      35.074      39.336      42.440    
  43.599      42.440      33.226      29.229      24.657      19.779      15.024      10.971      8.0451      6.2419    
  5.1992      4.7139      4.7142      5.1999      6.2425      8.0452      10.971      15.023      19.777      24.657    
  29.230      33.228      36.330      38.070      38.069      36.327      27.193      23.315      19.016      14.730    
  10.971      8.1437      6.3116      5.1956      4.5874      4.3977      4.5871      5.1958      6.3126      8.1450    
  10.972      14.729      19.016      23.314      27.193      30.318      32.382      33.109      32.382      30.318    
  21.107      17.525      13.870      10.594      8.0451      6.3116      5.1953      4.5309      4.2304      4.2300    
  4.5298      5.1946      6.3117      8.0458      10.595      13.871      17.525      21.106      24.200      26.475    
  27.684      27.685      26.477      24.202      15.420      12.533      9.8864      7.7625      6.2419      5.1956    
  4.5309      4.1790      4.0706      4.1787      4.5299      5.1939      6.2404      7.7621      9.8874      12.534    
  15.420      18.171      20.424      21.897      22.409      21.898      20.426      18.172      10.890      8.9521    
  7.3382      6.1093      5.1993      4.5874      4.2304      4.0706      4.0712      4.2314      4.5874      5.1978    
  6.1073      7.3368      8.9516      10.891      12.944      14.826      16.257      17.027      17.026      16.255    
  14.824      12.943      7.9309      6.8354      5.9301      5.2174      4.7139      4.3977      4.2300      4.1787    
  4.2314      4.3996      4.7152      5.2173      5.9288      6.8335      7.9295      9.1805      10.449      11.544    
  12.284      12.544      12.281      11.541      10.447      9.1803      6.3123      5.7344      5.2696      4.9335    
  4.7142      4.5871      4.5298      4.5299      4.5874      4.7152      4.9352      5.2711      5.7348      6.3113    
  6.9573      7.6374      8.2811      8.7876      9.0661      9.0654      8.7861      8.2803      7.6381      6.9588    
  5.5620      5.3791      5.2697      5.2179      5.1999      5.1958      5.1947      5.1940      5.1978      5.2173    
  5.2711      5.3813      5.5635      5.8139      6.1045      6.3905      6.6324      6.7967      6.8554      6.7978    
  6.6343      6.3925      6.1058      5.8140      5.5625      5.7348      5.9301      6.1095      6.2425      6.3126    
  6.3118      6.2404      6.1073      5.9288      5.7348      5.5635      5.4461      5.3935      5.3942      5.4241    
  5.4589      5.4812      5.4823      5.4613      5.4260      5.3942      5.3921      5.4444      6.3128      6.8351    
  7.3374      7.7616      8.0452      8.1450      8.0458      7.7621      7.3368      6.8335      6.3113      5.8139    
  5.3935      5.0768      4.8624      4.7320      4.6646      4.6444      4.6653      4.7322      4.8611      5.0745    
  5.3917      5.8140      7.9304      8.9510      9.8852      10.592      10.971      10.972      10.595      9.8874    
  8.9516      7.9295      6.9573      6.1045      5.3942      4.8624      4.5057      4.2953      4.1994      4.1988    
  4.2938      4.5040      4.8611      5.3940      6.1054      6.9588      10.890      12.533      13.870      14.729    
  15.023      14.729      13.871      12.534      10.891      9.1805      7.6374      6.3905      5.4241      4.7320    
  4.2953      4.0630      3.9905      4.0616      4.2940      4.7322      5.4259      6.3926      7.6385      9.1803    
  15.421      17.528      19.019      19.779      19.778      19.016      17.525      15.420      12.944      10.449    
  8.2811      6.6324      5.4589      4.6646      4.1994      3.9905      3.9904      4.1996      4.6656      5.4607    
  6.6338      8.2811      10.448      12.943      21.111      23.320      24.661      25.105      24.657      23.314    
  21.106      18.171      14.826      11.544      8.7875      6.7967      5.4812      4.6444      4.1988      4.0616    
  4.1996      4.6456      5.4820      6.7964      8.7858      11.542      14.825      18.172      27.196      29.233    
  30.258      30.257      29.230      27.193      24.200      20.424      16.257      12.284      9.0661      6.8554    
  5.4823      4.6653      4.2938      4.2940      4.6656      5.4820      6.8542      9.0642      12.282      16.256    
  20.425      24.202      33.227      35.073      35.712      35.074      33.228      30.318      26.475      21.897    
  17.027      12.544      9.0654      6.7978      5.4613      4.7322      4.5040      4.7322      5.4607      6.7964    
  9.0642      12.544      17.028      21.898      26.475      30.318      39.334      41.017      41.018      39.336    
  36.330      32.382      27.684      22.409      17.026      12.281      8.7861      6.6342      5.4260      4.8611    
  4.8611      5.4259      6.6338      8.7858      12.282      17.028      22.411      27.684      32.381      36.327    
  45.642      46.843      45.641      42.440      38.070      33.109      27.685      21.898      16.255      11.541    
  8.2803      6.3925      5.3942      5.0745      5.3940      6.3925      8.2810      11.542      16.256      21.898    
  27.684      33.108      38.070      42.440      51.406      51.406      48.447      43.599      38.069      32.382    
  26.477      20.426      14.824      10.447      7.6380      6.1058      5.3921      5.3917      6.1054      7.6385    
  10.448      14.825      20.425      26.475      32.381      38.070      43.601      48.449      54.995      53.169    
  48.449      42.440      36.327      30.318      24.202      18.172      12.943      9.1803      6.9588      5.8140    
  5.4444      5.8140      6.9588      9.1803      12.943      18.172      24.202      30.318      36.327      42.440    
  48.449      53.169      49.810      45.646      40.246      34.588      28.865      22.978      17.213      12.282    
  8.7787      6.7207      5.6461      5.3000      5.6464      6.7204      8.7777      12.282      17.215      22.982    
  28.868      34.588      40.242      45.640      49.806      51.406      45.646      41.022      35.714      30.256    
  24.657      19.016      13.870      9.8864      7.3382      5.9301      5.2696      5.2697      5.9301      7.3374    
  9.8852      13.870      19.019      24.661      30.258      35.712      41.018      45.641      48.447      48.449    
  40.246      35.714      30.711      25.470      20.104      15.006      10.799      7.8970      6.1985      5.2849    
  4.9934      5.2854      6.1985      7.8957      10.797      15.004      20.103      25.471      30.711      35.714    
  40.246      43.601      44.862      43.601      34.588      30.256      25.470      20.462      15.588      11.391    
  8.3194      6.4138      5.3209      4.8098      4.8102      5.3217      6.4139      8.3183      11.388      15.585    
  20.460      25.470      30.259      34.593      38.074      40.073      40.071      38.070      28.865      24.657    
  20.104      15.588      11.594      8.5446      6.5524      5.3552      4.6998      4.4946      4.6998      5.3559    
  6.5535      8.5450      11.592      15.584      20.101      24.657      28.869      32.386      34.788      35.648    
  34.783      32.381      22.978      19.016      15.006      11.391      8.5446      6.5999      5.3741      4.6428    
  4.3105      4.3101      4.6422      5.3747      6.6015      8.5458      11.390      15.004      19.015      22.978    
  26.477      29.122      30.560      30.559      29.120      26.475      17.213      13.870      10.799      8.3194    
  6.5524      5.3741      4.6250      4.2274      4.1047      4.2268      4.6242      5.3736      6.5526      8.3200    
  10.800      13.870      17.213      20.424      23.097      24.874      25.499      24.875      23.098      20.425    
  12.282      9.8864      7.8970      6.4138      5.3552      4.6428      4.2274      4.0416      4.0418      4.2274    
  4.6418      5.3535      6.4124      7.8968      9.8869      12.283      14.825      17.170      18.973      19.953    
  19.953      18.973      17.171      14.825      8.7788      7.3382      6.1985      5.3209      4.6998      4.3105    
  4.1047      4.0418      4.1058      4.3116      4.6998      5.3198      6.1969      7.3368      8.7778      10.448    
  12.154      13.637      14.647      15.004      14.645      13.634      12.152      10.448      6.7207      5.9301    
  5.2849      4.8098      4.4946      4.3101      4.2268      4.2274      4.3116      4.4964      4.8112      5.2851    
  5.9290      6.7185      7.6369      8.6408      9.6078      10.377      10.803      10.801      10.374      9.6053    
  8.6405      7.6385      5.6461      5.2696      4.9934      4.8102      4.6999      4.6422      4.6242      4.6418    
  4.6998      4.8112      4.9952      5.2711      5.6463      6.1042      6.6015      7.0952      7.5287      7.8285    
  7.9356      7.8281      7.5287      7.0963      6.6032      6.1054      5.3000      5.2697      5.2854      5.3217    
  5.3559      5.3747      5.3736      5.3535      5.3198      5.2851      5.2711      5.3020      5.3931      5.5403    
  5.7185      5.8919      6.0267      6.1006      6.1015      6.0289      5.8943      5.7201      5.5403      5.3917    
  5.6464      5.9301      6.1985      6.4139      6.5536      6.6015      6.5526      6.4124      6.1969      5.9290    
  5.6463      5.3931      5.2009      5.0782      5.0138      4.9876      4.9806      4.9804      4.9822      4.9892    
  5.0140      5.0768      5.1991      5.3921      6.7204      7.3374      7.8957      8.3183      8.5450      8.5458    
  8.3200      7.8968      7.3368      6.7185      6.1042      5.5403      5.0782      4.7378      4.5111      4.3775    
  4.3169      4.3169      4.3772      4.5097      4.7356      5.0765      5.5403      6.1058      8.7777      9.8852    
  10.797      11.388      11.592      11.390      10.800      9.8869      8.7778      7.6369      6.6015      5.7185    
  5.0138      4.5111      4.1916      4.0196      3.9655      4.0184      4.1899      4.5099      5.0139      5.7197    
  6.6032      7.6381      12.282      13.870      15.004      15.585      15.584      15.004      13.870      12.283    
  10.448      8.6408      7.0952      5.8919      4.9876      4.3775      4.0196      3.8577      3.8572      4.0187    
  4.3777      4.9892      5.8941      7.0965      8.6405      10.447      17.215      19.019      20.103      20.460    
  20.101      19.015      17.213      14.825      12.154      9.6078      7.5287      6.0267      4.9806      4.3169    
  3.9655      3.8572      3.9657      4.3177      4.9821      6.0280      7.5287      9.6063      12.152      14.824    
  22.982      24.661      25.471      25.470      24.657      22.978      20.424      17.170      13.637      10.377    
  7.8285      6.1006      4.9804      4.3169      4.0184      4.0187      4.3177      4.9811      6.1003      7.8269    
  10.375      13.636      17.171      20.426      28.868      30.258      30.711      30.259      28.869      26.477    
  23.097      18.973      14.647      10.803      7.9356      6.1015      4.9822      4.3772      4.1899      4.3776    
  4.9821      6.1003      7.9338      10.802      14.647      18.974      23.098      26.477      34.588      35.712    
  35.714      34.593      32.386      29.122      24.874      19.953      15.004      10.801      7.8281      6.0289    
  4.9892      4.5097      4.5099      4.9892      6.0280      7.8269      10.802      15.007      19.956      24.875    
  29.120      32.382      40.242      41.018      40.246      38.074      34.788      30.560      25.499      19.953    
  14.645      10.374      7.5287      5.8943      5.0140      4.7356      5.0139      5.8941      7.5287      10.375    
  14.647      19.956      25.501      30.559      34.783      38.069      45.640      45.641      43.601      40.073    
  35.648      30.559      24.875      18.973      13.634      9.6053      7.0962      5.7201      5.0768      5.0765    
  5.7197      7.0965      9.6063      13.635      18.974      24.875      30.559      35.647      40.071      43.599    
  49.806      48.447      44.862      40.071      34.783      29.120      23.098      17.171      12.152      8.6405    
  6.6032      5.5403      5.1991      5.5403      6.6032      8.6405      12.152      17.171      23.098      29.120    
  34.783      40.071      44.862      48.447      51.406      48.449      43.601      38.070      32.381      26.475    
  20.425      14.825      10.448      7.6385      6.1054      5.3917      5.3921      6.1058      7.6380      10.447    
  14.824      20.426      26.477      32.382      38.069      43.599      48.447      51.406      43.297      39.337    
  34.588      29.437      23.948      18.370      13.335      9.5052      7.0916      5.7540      5.1264      5.1265    
  5.7541      7.0912      9.5044      13.335      18.371      23.950      29.439      34.588      39.334      43.294    
  45.640      45.642      39.337      35.074      30.256      25.104      19.779      14.730      10.594      7.7625    
  6.1093      5.2174      4.9335      5.2179      6.1095      7.7616      10.592      14.729      19.779      25.105    
  30.257      35.074      39.336      42.440      43.599      42.440      34.588      30.256      25.470      20.462    
  15.588      11.391      8.3194      6.4138      5.3209      4.8098      4.8102      5.3217      6.4139      8.3183    
  11.388      15.585      20.460      25.470      30.259      34.593      38.074      40.073      40.071      38.070    
  29.437      25.104      20.462      15.874      11.806      8.6837      6.6362      5.4104      4.7386      4.5282    
  4.7389      5.4112      6.6372      8.6835      11.803      15.869      20.459      25.105      29.443      33.116    
  35.653      36.568      35.647      33.108      23.948      19.779      15.588      11.806      8.8098      6.7531    
  5.4677      4.7013      4.3522      4.3519      4.7012      5.4690      6.7553      8.8107      11.804      15.584    
  19.776      23.950      27.688      30.564      32.146      32.144      30.559      27.684      18.370      14.730    
  11.391      8.6837      6.7531      5.4869      4.6849      4.2580      4.1262      4.2574      4.6847      5.4881    
  6.7552      8.6853      11.390      14.728      18.368      21.897      24.876      26.884      27.594      26.883    
  24.875      21.898      13.335      10.594      8.3194      6.6362      5.4677      4.6849      4.2286      4.0245    
  4.0243      4.2281      4.6842      5.4674      6.6367      8.3205      10.594      13.335      16.254      18.972    
  21.083      22.241      22.241      21.085      18.974      16.256      9.5052      7.7625      6.4138      5.4104    
  4.7013      4.2580      4.0245      3.9529      4.0249      4.2580      4.7003      5.4090      6.4129      7.7626    
  9.5057      11.542      13.635      15.470      16.730      17.179      16.730      15.471      13.636      11.542    
  7.0916      6.1093      5.3209      4.7386      4.3522      4.1262      4.0243      4.0249      4.1274      4.3531    
  4.7387      5.3201      6.1081      7.0902      8.2803      9.6068      10.899      11.935      12.513      12.512    
  11.933      10.897      9.6063      8.2811      5.7541      5.2174      4.8098      4.5282      4.3519      4.2574    
  4.2281      4.2580      4.3531      4.5299      4.8113      5.2178      5.7529      6.3904      7.0950      7.8232    
  8.4765      8.9337      9.0976      8.9319      8.4746      7.8228      7.0965      6.3926      5.1264      4.9335    
  4.8102      4.7389      4.7012      4.6847      4.6842      4.7003      4.7387      4.8113      4.9355      5.1279    
  5.3941      5.7184      6.0634      6.3819      6.6325      6.7721      6.7723      6.6333      6.3834      6.0652    
  5.7197      5.3940      5.1265      5.2179      5.3217      5.4112      5.4690      5.4881      5.4674      5.4090    
  5.3201      5.2178      5.1279      5.0765      5.0780      5.1278      5.2055      5.2844      5.3417      5.3631    
  5.3436      5.2869      5.2072      5.1278      5.0765      5.0745      5.7541      6.1095      6.4139      6.6372    
  6.7553      6.7552      6.6367      6.4129      6.1081      5.7529      5.3941      5.0780      4.8325      4.6622    
  4.5558      4.4970      4.4718      4.4724      4.4980      4.5560      4.6609      4.8305      5.0768      5.3942    
  7.0912      7.7616      8.3183      8.6835      8.8107      8.6853      8.3205      7.7626      7.0902      6.3904    
  5.7184      5.1278      4.6622      4.3298      4.1162      3.9995      3.9626      3.9990      4.1149      4.3280    
  4.6607      5.1278      5.7201      6.3925      9.5044      10.592      11.388      11.803      11.804      11.390    
  10.595      9.5057      8.2803      7.0950      6.0634      5.2055      4.5558      4.1162      3.8548      3.7348    
  3.7342      3.8534      4.1152      4.5560      5.2068      6.0652      7.0963      8.2803      13.335      14.729    
  15.585      15.869      15.584      14.728      13.335      11.542      9.6068      7.8232      6.3819      5.2844    
  4.4970      3.9995      3.7348      3.6526      3.7343      3.9996      4.4984      5.2865      6.3833      7.8228    
  9.6053      11.541      18.371      19.779      20.460      20.459      19.776      18.368      16.254      13.635    
  10.899      8.4765      6.6325      5.3417      4.4718      3.9626      3.7342      3.7343      3.9632      4.4729    
  5.3427      6.6325      8.4751      10.897      13.634      16.255      23.950      25.105      25.470      25.105    
  23.950      21.897      18.972      15.470      11.935      8.9337      6.7721      5.3631      4.4724      3.9990    
  3.8534      3.9996      4.4729      5.3627      6.7706      8.9320      11.935      15.471      18.973      21.898    
  29.439      30.257      30.259      29.443      27.688      24.876      21.083      16.730      12.513      9.0976    
  6.7723      5.3436      4.4980      4.1149      4.1152      4.4984      5.3427      6.7706      9.0967      12.515    
  16.733      21.085      24.875      27.685      34.588      35.074      34.593      33.116      30.564      26.884    
  22.241      17.179      12.512      8.9319      6.6333      5.2869      4.5560      4.3280      4.5560      5.2865    
  6.6325      8.9320      12.515      17.183      22.244      26.883      30.559      33.109      39.334      39.336    
  38.074      35.653      32.146      27.594      22.241      16.730      11.933      8.4746      6.3834      5.2072    
  4.6609      4.6607      5.2068      6.3833      8.4751      11.935      16.733      22.244      27.595      32.144    
  35.648      38.070      43.294      42.440      40.073      36.568      32.144      26.883      21.085      15.471    
  10.897      7.8228      6.0652      5.1278      4.8305      5.1278      6.0652      7.8228      10.897      15.471    
  21.085      26.883      32.144      36.568      40.073      42.440      45.640      43.599      40.071      35.647    
  30.559      24.875      18.974      13.635      9.6063      7.0965      5.7197      5.0765      5.0768      5.7201    
  7.0962      9.6053      13.634      18.973      24.875      30.559      35.648      40.073      43.601      45.641    
  45.642      42.440      38.070      33.108      27.684      21.898      16.256      11.542      8.2810      6.3925    
  5.3940      5.0745      5.3942      6.3925      8.2803      11.541      16.255      21.898      27.685      33.109    
  38.070      42.440      45.641      46.843      36.838      33.226      28.865      23.948      18.769      13.899    
  9.9937      7.3771      5.8527      5.0244      4.7626      5.0247      5.8533      7.3775      9.9937      13.899    
  18.768      23.948      28.865      33.227      36.838      39.334      40.242      39.334      33.226      29.229    
  24.657      19.779      15.024      10.971      8.0451      6.2419      5.1992      4.7139      4.7142      5.1999    
  6.2425      8.0452      10.971      15.023      19.777      24.657      29.230      33.228      36.330      38.070    
  38.069      36.327      28.865      24.657      20.104      15.588      11.594      8.5446      6.5524      5.3552    
  4.6998      4.4946      4.6998      5.3559      6.5535      8.5450      11.592      15.584      20.101      24.657    
  28.869      32.386      34.788      35.648      34.783      32.381      23.948      19.779      15.588      11.806    
  8.8098      6.7531      5.4677      4.7013      4.3522      4.3519      4.7012      5.4690      6.7553      8.8107    
  11.804      15.584      19.776      23.950      27.688      30.564      32.146      32.144      30.559      27.684    
  18.769      15.024      11.594      8.8098      6.8225      5.5254      4.7053      4.2683      4.1333      4.2678    
  4.7055      5.5271      6.8253      8.8117      11.594      15.022      18.766      22.409      25.501      27.596    
  28.340      27.595      25.501      22.411      13.899      10.971      8.5446      6.7531      5.5254      4.7070    
  4.2297      4.0161      4.0157      4.2289      4.7068      5.5265      6.7556      8.5474      10.973      13.898    
  17.025      19.952      22.240      23.502      23.503      22.244      19.956      17.028      9.9937      8.0451    