unknown system                          
    1.000000000000000     
     2.402521    0.000000    1.387096
     0.800840    2.265118    1.387096
     0.000000    0.000000    2.774192
   Pt
     1
Direct
  0.000000  0.000000  0.000000
 
   24   24   24
 0.57013369751E+02 0.54996415784E+02 0.49809754262E+02 0.43296718001E+02 0.36837712586E+02
 0.30684798180E+02 0.24542953438E+02 0.18495736270E+02 0.13210551794E+02 0.93680253552E+01
 0.70833398834E+01 0.59098635981E+01 0.55306362686E+01 0.59098637501E+01 0.70833402304E+01
 0.93680261358E+01 0.13210553369E+02 0.18495738733E+02 0.24542956313E+02 0.30684800651E+02
 0.36837714092E+02 0.43296718572E+02 0.49809754320E+02 0.54996415724E+02 0.54996416172E+02
 0.51409756940E+02 0.45645747690E+02 0.39336557159E+02 0.33226229840E+02 0.27192536960E+02
 0.21107213008E+02 0.15419966884E+02 0.10890421428E+02 0.79308852723E+01 0.63123069323E+01
 0.55620336379E+01 0.55624546716E+01 0.63127843875E+01 0.79304007219E+01 0.10889714075E+02
 0.15421037727E+02 0.21110678348E+02 0.27196313698E+02 0.33227415392E+02 0.39334265598E+02
 0.45641668668E+02 0.51406328506E+02 0.54995138229E+02 0.49809755351E+02 0.45645747900E+02
 0.40245798985E+02 0.34588125465E+02 0.28864802846E+02 0.22977986492E+02 0.17213199581E+02
 0.12282059065E+02 0.87787491045E+01 0.67206721790E+01 0.56460674463E+01 0.52999602506E+01
 0.56464414479E+01 0.67204352936E+01 0.87776575007E+01 0.12281566234E+02 0.17215045307E+02
 0.22981930491E+02 0.28868261976E+02 0.34588302946E+02 0.40242131111E+02 0.45640378512E+02
 0.49805939685E+02 0.51406330037E+02 0.43296719214E+02 0.39336556985E+02 0.34588125073E+02
 0.29437266305E+02 0.23948491698E+02 0.18370479258E+02 0.13335187724E+02 0.95051644568E+01
 0.70915608363E+01 0.57540466412E+01 0.51264216842E+01 0.51265081929E+01 0.57540866064E+01
 0.70911698656E+01 0.95043518357E+01 0.13334602946E+02 0.18370924294E+02 0.23949997027E+02
 0.29438686386E+02 0.34587940733E+02 0.39334357468E+02 0.43293890108E+02 0.45640380977E+02
 0.45641671323E+02 0.36837713667E+02 0.33226229545E+02 0.28864802550E+02 0.23948491833E+02
 0.18768837781E+02 0.13899351876E+02 0.99937239986E+01 0.73771393763E+01 0.58527295443E+01
 0.50244019172E+01 0.47625747055E+01 0.50247391330E+01 0.58532600993E+01 0.73775459675E+01
 0.99936601146E+01 0.13898757396E+02 0.18768073393E+02 0.23948047524E+02 0.28864854404E+02
 0.33226542263E+02 0.36837965528E+02 0.39334360697E+02 0.40242135361E+02 0.39334268179E+02
 0.30684800007E+02 0.27192537825E+02 0.22977987486E+02 0.18370480461E+02 0.13899352713E+02
 0.10165568160E+02 0.75326594620E+01 0.59191785840E+01 0.49713351594E+01 0.45346645202E+01
 0.45347014117E+01 0.49716369260E+01 0.59200125645E+01 0.75338783422E+01 0.10166618648E+02
 0.13899780929E+02 0.18370276889E+02 0.22977397470E+02 0.27191718445E+02 0.30683829549E+02
 0.33226546057E+02 0.34587946473E+02 0.34588307895E+02 0.33227417565E+02 0.24542957261E+02
 0.21107216112E+02 0.17213202512E+02 0.13335190305E+02 0.99937258122E+01 0.75326603256E+01
 0.59422951616E+01 0.49496397637E+01 0.44142600190E+01 0.42479876585E+01 0.44135922103E+01
 0.49490198703E+01 0.59424494458E+01 0.75337702202E+01 0.99954983291E+01 0.13337081099E+02
 0.17214334881E+02 0.21106449944E+02 0.24539734213E+02 0.27191722439E+02 0.28864861202E+02
 0.29438693639E+02 0.28868267438E+02 0.27196316512E+02 0.18495742283E+02 0.15419971994E+02
 0.12282063430E+02 0.95051679334E+01 0.73771418591E+01 0.59191801547E+01 0.49496405048E+01
 0.43773162493E+01 0.41197255008E+01 0.41193541429E+01 0.43762579647E+01 0.49481791042E+01
 0.59179837494E+01 0.73770664303E+01 0.95065853799E+01 0.12284186409E+02 0.15420988647E+02
 0.18494060959E+02 0.21106453602E+02 0.22977404401E+02 0.23948056128E+02 0.23950005267E+02
 0.22981936988E+02 0.21110682977E+02 0.13210558813E+02 0.10890427280E+02 0.87787538932E+01
 0.70915646444E+01 0.58527325257E+01 0.49713373140E+01 0.44142613518E+01 0.41197261107E+01
 0.40293537209E+01 0.41202437177E+01 0.44142574894E+01 0.49700354240E+01 0.58506504268E+01
 0.70900631162E+01 0.87786709329E+01 0.10891339542E+02 0.13211347872E+02 0.15420991485E+02
 0.17214340831E+02 0.18370285224E+02 0.18768082671E+02 0.18370933089E+02 0.17215052855E+02
 0.15421044037E+02 0.93680319513E+01 0.79308908408E+01 0.67206769355E+01 0.57540507632E+01
 0.50244053013E+01 0.45346671031E+01 0.42479894771E+01 0.41193552920E+01 0.41202442777E+01
 0.42498913855E+01 0.45360069611E+01 0.50241805452E+01 0.57524986793E+01 0.67188185811E+01
 0.79297342711E+01 0.93681905711E+01 0.10891341383E+02 0.12284190658E+02 0.13337087707E+02
 0.13899789177E+02 0.13898766218E+02 0.13334611411E+02 0.12281573845E+02 0.10889720742E+02
 0.70833456651E+01 0.63123123020E+01 0.56460723909E+01 0.51264260526E+01 0.47625783955E+01
 0.45347044041E+01 0.44135945472E+01 0.43762596941E+01 0.44142586287E+01 0.45360075121E+01
 0.47642574706E+01 0.51278420037E+01 0.56464672560E+01 0.63114330518E+01 0.70818988314E+01
 0.79297352822E+01 0.87786734696E+01 0.95065897051E+01 0.99955042759E+01 0.10166625657E+02
 0.99936674753E+01 0.95043589578E+01 0.87776640669E+01 0.79304066709E+01 0.59098691935E+01
 0.55620390514E+01 0.52999653220E+01 0.51265128025E+01 0.50247432262E+01 0.49716404878E+01
 0.49490228781E+01 0.49481815043E+01 0.49700371536E+01 0.50241815864E+01 0.51278424321E+01
 0.53022919658E+01 0.55636653906E+01 0.59098255556E+01 0.63114335556E+01 0.67188199098E+01
 0.70900655425E+01 0.73770700427E+01 0.75337748524E+01 0.75338836347E+01 0.73775515275E+01
 0.70911754222E+01 0.67204407675E+01 0.63127898586E+01 0.55306417665E+01 0.55624601097E+01
 0.56464467101E+01 0.57540916255E+01 0.58532648187E+01 0.59200168898E+01 0.59424532283E+01
 0.59179868134E+01 0.58506526449E+01 0.57525000365E+01 0.56464678827E+01 0.55636655418E+01
 0.55322441680E+01 0.55636655369E+01 0.56464678485E+01 0.57524999412E+01 0.58506524696E+01
 0.59179865618E+01 0.59424529257E+01 0.59200165781E+01 0.58532645454E+01 0.57540914266E+01
 0.56464465945E+01 0.55624600613E+01 0.59098691657E+01 0.63127899128E+01 0.67204409216E+01
 0.70911756686E+01 0.73775518342E+01 0.75338839585E+01 0.75337751495E+01 0.73770702737E+01
 0.70900656818E+01 0.67188199579E+01 0.63114335420E+01 0.59098255204E+01 0.55636653540E+01
 0.53022919169E+01 0.51278423422E+01 0.50241814306E+01 0.49700369259E+01 0.49481812220E+01
 0.49490225769E+01 0.49716402098E+01 0.50247430012E+01 0.51265126355E+01 0.52999652009E+01
 0.55620389695E+01 0.70833456514E+01 0.79304067858E+01 0.87776643076E+01 0.95043592964E+01
 0.99936678695E+01 0.10166626055E+02 0.99955046191E+01 0.95065899417E+01 0.87786735780E+01
 0.79297352824E+01 0.70818987711E+01 0.63114329778E+01 0.56464671875E+01 0.51278419230E+01
 0.47642573467E+01 0.45360073280E+01 0.44142583937E+01 0.43762594365E+01 0.44135942963E+01
 0.45347041734E+01 0.47625781808E+01 0.51264258490E+01 0.56460722127E+01 0.63123121855E+01
 0.93680320861E+01 0.10889721076E+02 0.12281574346E+02 0.13334612013E+02 0.13898766828E+02
 0.13899789693E+02 0.13337088047E+02 0.12284190794E+02 0.10891341346E+02 0.93681904346E+01
 0.79297341127E+01 0.67188184512E+01 0.57524985880E+01 0.50241804631E+01 0.45360068487E+01
 0.42498912285E+01 0.41202440911E+01 0.41193550935E+01 0.42479892630E+01 0.45346668549E+01
 0.50244050179E+01 0.57540504847E+01 0.67206767314E+01 0.79308907824E+01 0.13210559390E+02
 0.15421044905E+02 0.17215053890E+02 0.18370934093E+02 0.18768083439E+02 0.18370285624E+02
 0.17214340851E+02 0.15420991215E+02 0.13211347453E+02 0.10891339109E+02 0.87786705866E+01
 0.70900629028E+01 0.58506503274E+01 0.49700353733E+01 0.44142574236E+01 0.41202436164E+01
 0.40293535904E+01 0.41197259403E+01 0.44142611092E+01 0.49713369913E+01 0.58527321802E+01
 0.70915643849E+01 0.87787538408E+01 0.10890427525E+02 0.18495743684E+02 0.21110684668E+02
 0.22981938617E+02 0.23950006436E+02 0.23948056580E+02 0.22977404136E+02 0.21106452827E+02
 0.18494059943E+02 0.15420987619E+02 0.12284185540E+02 0.95065847820E+01 0.73770661274E+01
 0.59179836620E+01 0.49481791010E+01 0.43762579492E+01 0.41193540886E+01 0.41197253998E+01
 0.43773160670E+01 0.49496402162E+01 0.59191798120E+01 0.73771416010E+01 0.95051679387E+01
 0.12282063852E+02 0.15419972918E+02 0.24542959688E+02 0.27196318938E+02 0.28868269226E+02
 0.29438694308E+02 0.28864860681E+02 0.27191721045E+02 0.24539732395E+02 0.21106448064E+02
 0.17214333182E+02 0.13337079772E+02 0.99954974983E+01 0.75337698636E+01 0.59424493891E+01
 0.49490199077E+01 0.44135922302E+01 0.42479876388E+01 0.44142599385E+01 0.49496395836E+01
 0.59422949054E+01 0.75326601340E+01 0.99937259096E+01 0.13335190911E+02 0.17213203777E+02
 0.21107218059E+02 0.30684803166E+02 0.33227420109E+02 0.34588309094E+02 0.34587946066E+02
 0.33226544356E+02 0.30683827143E+02 0.27191715823E+02 0.22977394924E+02 0.18370274653E+02
 0.13899779258E+02 0.10166617689E+02 0.75338779933E+01 0.59200125433E+01 0.49716369852E+01
 0.45347014604E+01 0.45346645453E+01 0.49713351262E+01 0.59191784792E+01 0.75326593970E+01
 0.10165568376E+02 0.13899353478E+02 0.18370481972E+02 0.22977989813E+02 0.27192540815E+02
 0.36837716762E+02 0.39334270056E+02 0.40242135550E+02 0.39334359356E+02 0.36837963231E+02
 0.33226539537E+02 0.28864851510E+02 0.23948044641E+02 0.18768070851E+02 0.13898755581E+02
 0.99936591697E+01 0.73775456746E+01 0.58532600994E+01 0.50247392007E+01 0.47625747941E+01
 0.50244020098E+01 0.58527296066E+01 0.73771394717E+01 0.99937243541E+01 0.13899352784E+02
 0.18768839446E+02 0.23948494315E+02 0.28864805733E+02 0.33226233042E+02 0.43296721424E+02
 0.45641672202E+02 0.45640380499E+02 0.43293888674E+02 0.39334355499E+02 0.34587938354E+02
 0.29438683584E+02 0.23949994040E+02 0.18370921680E+02 0.13334601204E+02 0.95043510193E+01
 0.70911696379E+01 0.57540866063E+01 0.51265082715E+01 0.51264218273E+01 0.57540468211E+01
 0.70915610730E+01 0.95051649412E+01 0.13335188757E+02 0.18370481038E+02 0.23948494202E+02
 0.29437269347E+02 0.34588128355E+02 0.39336560040E+02 0.49809756407E+02 0.51406330266E+02
 0.49805939295E+02 0.45640377733E+02 0.40242129879E+02 0.34588300981E+02 0.28868259244E+02
 0.22981927505E+02 0.17215042843E+02 0.12281564743E+02 0.87776568630E+01 0.67204351096E+01
 0.56464414378E+01 0.52999603519E+01 0.56460676486E+01 0.67206724794E+01 0.87787496482E+01
 0.12282060156E+02 0.17213201441E+02 0.22977989019E+02 0.28864805673E+02 0.34588128216E+02
 0.40245801396E+02 0.45645749741E+02 0.54996416455E+02 0.54995138350E+02 0.51406328540E+02
 0.45641668431E+02 0.39334264637E+02 0.33227413371E+02 0.27196310865E+02 0.21110675498E+02
 0.15421035626E+02 0.10889712936E+02 0.79304002510E+01 0.63127842228E+01 0.55624546601E+01
 0.55620337680E+01 0.63123071965E+01 0.79308857648E+01 0.10890422438E+02 0.15419968703E+02
 0.21107215567E+02 0.27192539739E+02 0.33226232222E+02 0.39336558842E+02 0.45645748731E+02
 0.51409757524E+02 0.54996415938E+02 0.51409756755E+02 0.45645747803E+02 0.39336557522E+02
 0.33226230187E+02 0.27192537083E+02 0.21107212921E+02 0.15419966740E+02 0.10890421331E+02
 0.79308852186E+01 0.63123068907E+01 0.55620336386E+01 0.55624547554E+01 0.63127845445E+01
 0.79304009367E+01 0.10889714398E+02 0.15421038238E+02 0.21110679080E+02 0.27196314609E+02
 0.33227416403E+02 0.39334266607E+02 0.45641669519E+02 0.51406329005E+02 0.54995138284E+02
 0.51409756693E+02 0.46849081754E+02 0.41022284900E+02 0.35073789745E+02 0.29229149090E+02
 0.23314796303E+02 0.17524710281E+02 0.12532882892E+02 0.89520484159E+01 0.68354389439E+01
 0.57344195636E+01 0.53791391655E+01 0.57348083869E+01 0.68351279820E+01 0.89509821994E+01
 0.12532994950E+02 0.17527862741E+02 0.23320070369E+02 0.29233019389E+02 0.35073235408E+02
 0.41017437316E+02 0.46842887565E+02 0.51405646303E+02 0.53169146350E+02 0.45645747379E+02
 0.41022284210E+02 0.35713792378E+02 0.30256470790E+02 0.24657310506E+02 0.19016401845E+02
 0.13869852081E+02 0.98863853042E+01 0.73382457904E+01 0.59301239482E+01 0.52695700737E+01
 0.52697128058E+01 0.59300709277E+01 0.73373643530E+01 0.98851902939E+01 0.13869895583E+02
 0.19018598633E+02 0.24660575997E+02 0.30258327404E+02 0.35712455629E+02 0.41018237695E+02
 0.45641460640E+02 0.48447052430E+02 0.48448864554E+02 0.39336556313E+02 0.35073788133E+02
 0.30256469951E+02 0.25104383526E+02 0.19778875018E+02 0.14729844494E+02 0.10593703279E+02
 0.77624545469E+01 0.61093378411E+01 0.52173621958E+01 0.49335450154E+01 0.52178766023E+01
 0.61094871443E+01 0.77615795070E+01 0.10592204459E+02 0.14728775850E+02 0.19778845811E+02
 0.25105059314E+02 0.30257092729E+02 0.35073943282E+02 0.39336368294E+02 0.42440141229E+02
 0.43598554270E+02 0.42440341625E+02 0.33226228794E+02 0.29229147548E+02 0.24657309862E+02
 0.19778875126E+02 0.15024384516E+02 0.10971374942E+02 0.80451062013E+01 0.62419205084E+01
 0.51992481857E+01 0.47139090040E+01 0.47141851024E+01 0.51998810263E+01 0.62424719759E+01
 0.80451725946E+01 0.10970751896E+02 0.15023147367E+02 0.19777494056E+02 0.24656635944E+02
 0.29229954727E+02 0.33228456336E+02 0.36329768769E+02 0.38069661566E+02 0.38068594452E+02
 0.36327316629E+02 0.27192537080E+02 0.23314796410E+02 0.19016402649E+02 0.14729845629E+02
 0.10971375710E+02 0.81436957152E+01 0.63116300087E+01 0.51956481398E+01 0.45874245885E+01
 0.43976731908E+01 0.45871121464E+01 0.51957856830E+01 0.63126421533E+01 0.81449575001E+01
 0.10971855249E+02 0.14729274898E+02 0.19015516739E+02 0.23314456640E+02 0.27192903943E+02
 0.30318495724E+02 0.32382082563E+02 0.33108796459E+02 0.32381675989E+02 0.30317875030E+02
 0.21107215488E+02 0.17524712798E+02 0.13869854683E+02 0.10593705583E+02 0.80451078086E+01
 0.63116307928E+01 0.51953198063E+01 0.45308596153E+01 0.42304437378E+01 0.42299501940E+01
 0.45298397749E+01 0.51946497681E+01 0.63117473276E+01 0.80458354917E+01 0.10594716979E+02
 0.13870866216E+02 0.17525182386E+02 0.21106367113E+02 0.24199827476E+02 0.26474579068E+02
 0.27683519060E+02 0.27684720376E+02 0.26477272742E+02 0.24202170202E+02 0.15419971564E+02
 0.12532887196E+02 0.98863890623E+01 0.77624575893E+01 0.62419227681E+01 0.51956496220E+01
 0.45308603062E+01 0.41789694325E+01 0.40706430904E+01 0.41786518290E+01 0.45298501997E+01
 0.51939480420E+01 0.62403539061E+01 0.77620732818E+01 0.98873915947E+01 0.12534272495E+02
 0.15420340386E+02 0.18170681813E+02 0.20424147233E+02 0.21896625795E+02 0.22408624728E+02
 0.21898254802E+02 0.20426300478E+02 0.18171924145E+02 0.10890427022E+02 0.89520533058E+01
 0.73382499480E+01 0.61093413464E+01 0.51992509981E+01 0.45874266034E+01 0.42304449825E+01
 0.40706436701E+01 0.40712054442E+01 0.42313921650E+01 0.45874086474E+01 0.51978242419E+01
 0.61073451472E+01 0.73368046079E+01 0.89516021960E+01 0.10890834166E+02 0.12944417898E+02
 0.14826157327E+02 0.16257111394E+02 0.17027176391E+02 0.17026476714E+02 0.16255473796E+02
 0.14824489884E+02 0.12943302599E+02 0.79308906792E+01 0.68354438332E+01 0.59301284101E+01
 0.52173660927E+01 0.47139121935E+01 0.43976756346E+01 0.42299519472E+01 0.41786529729E+01
 0.42313927406E+01 0.43996233179E+01 0.47152082166E+01 0.52173438429E+01 0.59288335758E+01
 0.68335246031E+01 0.79294505403E+01 0.91805132203E+01 0.10449056798E+02 0.11544198816E+02
 0.12284143453E+02 0.12544220421E+02 0.12281454446E+02 0.11540598834E+02 0.10446657306E+02
 0.91802764653E+01 0.63123121900E+01 0.57344246572E+01 0.52695747807E+01 0.49335491866E+01
 0.47141886666E+01 0.45871151040E+01 0.45298421517E+01 0.45298519999E+01 0.45874098462E+01
 0.47152087961E+01 0.49352262946E+01 0.52710861934E+01 0.57347740157E+01 0.63112746530E+01
 0.69572805458E+01 0.76374087041E+01 0.82810926567E+01 0.87875530565E+01 0.90661439482E+01
 0.90654311267E+01 0.87861031575E+01 0.82803050451E+01 0.76380544829E+01 0.69587942469E+01
 0.55620390032E+01 0.53791443858E+01 0.52697177383E+01 0.52178811683E+01 0.51998851886E+01
 0.51957893980E+01 0.51946529548E+01 0.51939505932E+01 0.51978260700E+01 0.52173449340E+01
 0.52710866401E+01 0.53813122577E+01 0.55635025981E+01 0.58139297273E+01 0.61044607053E+01
 0.63904712686E+01 0.66323640021E+01 0.67966535434E+01 0.68553810879E+01 0.67977762896E+01
 0.66342530062E+01 0.63924986750E+01 0.61058449299E+01 0.58139695204E+01 0.55624601383E+01
 0.57348137824E+01 0.59300762659E+01 0.61094923681E+01 0.62424770168E+01 0.63126468546E+01
 0.63117514359E+01 0.62403571828E+01 0.61073474785E+01 0.59288349912E+01 0.57347746729E+01
 0.55635027668E+01 0.54461241236E+01 0.53934628871E+01 0.53941818986E+01 0.54241419068E+01
 0.54588744101E+01 0.54811532378E+01 0.54822819416E+01 0.54613145345E+01 0.54259744703E+01
 0.53942449379E+01 0.53920901687E+01 0.54444485680E+01 0.63127899998E+01 0.68351337506E+01
 0.73373705788E+01 0.77615861424E+01 0.80451793582E+01 0.81449639130E+01 0.80458410056E+01
 0.77620774711E+01 0.73368073334E+01 0.68335260448E+01 0.63112751876E+01 0.58139297389E+01
 0.53934627420E+01 0.50768444936E+01 0.48623964016E+01 0.47320233461E+01 0.46645824224E+01
 0.46444131254E+01 0.46653124543E+01 0.47322403827E+01 0.48610932537E+01 0.50745115227E+01
 0.53917202859E+01 0.58139696431E+01 0.79304069307E+01 0.89509891950E+01 0.98851982955E+01
 0.10592213235E+02 0.10970760901E+02 0.10971863660E+02 0.10594723923E+02 0.98873964832E+01
 0.89516049607E+01 0.79294516045E+01 0.69572805576E+01 0.61044602280E+01 0.53941813435E+01
 0.48623960520E+01 0.45057453199E+01 0.42953314874E+01 0.41994055823E+01 0.41988174840E+01
 0.42938313377E+01 0.45039911972E+01 0.48611429948E+01 0.53939847471E+01 0.61054077154E+01
 0.69587945007E+01 0.10889721320E+02 0.12533003194E+02 0.13869905161E+02 0.14728786454E+02
 0.15023158160E+02 0.14729284626E+02 0.13870873672E+02 0.12534277050E+02 0.10890836009E+02
 0.91805131572E+01 0.76374076990E+01 0.63904700206E+01 0.54241407624E+01 0.47320225375E+01
 0.42953310797E+01 0.40629825933E+01 0.39904725705E+01 0.40616334483E+01 0.42940486023E+01
 0.47322155939E+01 0.54258803290E+01 0.63925505395E+01 0.76385316505E+01 0.91802770334E+01
 0.15421045246E+02 0.17527871242E+02 0.19018608812E+02 0.19778857191E+02 0.19777505311E+02
 0.19015526132E+02 0.17525188561E+02 0.15420342969E+02 0.12944417549E+02 0.10449054767E+02
 0.82810901683E+01 0.66323617854E+01 0.54588726067E+01 0.46645811119E+01 0.41994047243E+01
 0.39904721223E+01 0.39903856833E+01 0.41995605128E+01 0.46656383243E+01 0.54606884093E+01
 0.66337992415E+01 0.82810536295E+01 0.10447717440E+02 0.12943303868E+02 0.21110685027E+02
 0.23320078166E+02 0.24660585791E+02 0.25105070091E+02 0.24656645752E+02 0.23314463508E+02
 0.21106369984E+02 0.18170680901E+02 0.14826153841E+02 0.11544194342E+02 0.87875489191E+01
 0.67966503472E+01 0.54811508028E+01 0.46444112912E+01 0.41988161066E+01 0.40616324659E+01
 0.41995599758E+01 0.46455788566E+01 0.54820473617E+01 0.67964214959E+01 0.87858132416E+01
 0.11541682566E+02 0.14824641507E+02 0.18171926498E+02 0.27196319238E+02 0.29233026276E+02
 0.30258336106E+02 0.30257101436E+02 0.29229961155E+02 0.27192906501E+02 0.24199825869E+02
 0.20424142329E+02 0.16257104747E+02 0.12284136749E+02 0.90661384343E+01 0.68553771129E+01
 0.54822789425E+01 0.46653100575E+01 0.42938293532E+01 0.42940469949E+01 0.46656371561E+01
 0.54820467197E+01 0.68541894026E+01 0.90642259445E+01 0.12282239479E+02 0.16256114999E+02
 0.20424748864E+02 0.24202173696E+02 0.33227420396E+02 0.35073241552E+02 0.35712462541E+02
 0.35073948670E+02 0.33228458327E+02 0.30318493677E+02 0.26474573479E+02 0.21896617828E+02
 0.17027167570E+02 0.12544212323E+02 0.90654248321E+01 0.67977718316E+01 0.54613110165E+01
 0.47322373690E+01 0.45039885377E+01 0.47322132959E+01 0.54606865249E+01 0.67964200832E+01
 0.90642251120E+01 0.12544234827E+02 0.17028448894E+02 0.21898061116E+02 0.26475064485E+02
 0.30317879205E+02 0.39334270481E+02 0.41017442448E+02 0.41018242084E+02 0.39336369979E+02
 0.36329766938E+02 0.32382077507E+02 0.27683511511E+02 0.22408615581E+02 0.17026467201E+02
 0.12281446010E+02 0.87860967147E+01 0.66342482912E+01 0.54259704401E+01 0.48610895938E+01
 0.48611396439E+01 0.54258773097E+01 0.66337965701E+01 0.87858108475E+01 0.12282237750E+02
 0.17028448165E+02 0.22410608703E+02 0.27684020927E+02 0.32380659270E+02 0.36327320659E+02
 0.45641672849E+02 0.46842890991E+02 0.45641462339E+02 0.42440140250E+02 0.38069658118E+02
 0.33108791066E+02 0.27684713261E+02 0.21898246266E+02 0.16255464841E+02 0.11540590879E+02
 0.82802988711E+01 0.63924937672E+01 0.53942404071E+01 0.50745072538E+01 0.53939807418E+01
 0.63925468190E+01 0.82810499502E+01 0.11541679193E+02 0.16256112681E+02 0.21898060121E+02
 0.27684020707E+02 0.33108220379E+02 0.38069538915E+02 0.42440344755E+02 0.51406331003E+02
 0.51405647791E+02 0.48447052374E+02 0.43598552726E+02 0.38068591935E+02 0.32381672422E+02
 0.26477267488E+02 0.20426293426E+02 0.14824482079E+02 0.10446650213E+02 0.76380487062E+01
 0.61058397799E+01 0.53920852090E+01 0.53917155090E+01 0.61054031308E+01 0.76385270485E+01
 0.10447712668E+02 0.14824637389E+02 0.20424746282E+02 0.26475063346E+02 0.32380658685E+02
 0.38069538380E+02 0.43600624974E+02 0.48448866470E+02 0.54995138899E+02 0.53169146633E+02
 0.48448864292E+02 0.42440341316E+02 0.36327316343E+02 0.30317873770E+02 0.24202166763E+02
 0.18171918468E+02 0.12943295955E+02 0.91802702580E+01 0.69587887899E+01 0.58139641895E+01
 0.54444433180E+01 0.58139644790E+01 0.69587893405E+01 0.91802713332E+01 0.12943298031E+02
 0.18171921695E+02 0.24202170565E+02 0.30317877180E+02 0.36327318770E+02 0.42440342852E+02
 0.48448865286E+02 0.53169147187E+02 0.49809754897E+02 0.45645748108E+02 0.40245799966E+02
 0.34588126716E+02 0.28864803730E+02 0.22977986765E+02 0.17213199457E+02 0.12282058865E+02
 0.87787489585E+01 0.67206720546E+01 0.56460673427E+01 0.52999602643E+01 0.56464416158E+01
 0.67204355778E+01 0.87776579279E+01 0.12281566936E+02 0.17215046404E+02 0.22981931974E+02
 0.28868263710E+02 0.34588304729E+02 0.40242132661E+02 0.45640379474E+02 0.49805939831E+02
 0.51406329563E+02 0.45645747404E+02 0.41022284718E+02 0.35713793207E+02 0.30256471567E+02
 0.24657310955E+02 0.19016401960E+02 0.13869852029E+02 0.98863852236E+01 0.73382457136E+01
 0.59301238634E+01 0.52695700179E+01 0.52697128180E+01 0.59300710059E+01 0.73373644844E+01
 0.98851905138E+01 0.13869895954E+02 0.19018599183E+02 0.24660576695E+02 0.30258328172E+02
 0.35712456350E+02 0.41018238206E+02 0.45641460793E+02 0.48447052239E+02 0.48448864284E+02
 0.40245798011E+02 0.35713791857E+02 0.30710525496E+02 0.25470455072E+02 0.20103537724E+02
 0.15005740606E+02 0.10799299095E+02 0.78970276721E+01 0.61984843541E+01 0.52848639886E+01
 0.49934357735E+01 0.52854240434E+01 0.61984785260E+01 0.78956939061E+01 0.10797279086E+02
 0.15004387569E+02 0.20103471199E+02 0.25471158678E+02 0.30711230359E+02 0.35714283209E+02
 0.40246228643E+02 0.43600950091E+02 0.44862440303E+02 0.43600622011E+02 0.34588123722E+02
 0.30256469297E+02 0.25470454213E+02 0.20462140718E+02 0.15587747356E+02 0.11390717201E+02
 0.83194043336E+01 0.64137524904E+01 0.53208900711E+01 0.48097718406E+01 0.48102119921E+01
 0.53217121615E+01 0.64139319038E+01 0.83182634428E+01 0.11388333106E+02 0.15584802855E+02
 0.20459729181E+02 0.25469921427E+02 0.30258792383E+02 0.34592846485E+02 0.38074365921E+02
 0.40073341602E+02 0.40071289602E+02 0.38069534307E+02 0.28864801127E+02 0.24657309269E+02
 0.20103537329E+02 0.15587747608E+02 0.11593817251E+02 0.85445621006E+01 0.65524420839E+01
 0.53552463820E+01 0.46997719012E+01 0.44946041330E+01 0.46998493643E+01 0.53558725599E+01
 0.65535487656E+01 0.85449939773E+01 0.11592285740E+02 0.15584457949E+02 0.20100637753E+02
 0.24657398364E+02 0.28868709024E+02 0.32386473933E+02 0.34787610598E+02 0.35648232518E+02
 0.34783365141E+02 0.32380653990E+02 0.22977986274E+02 0.19016402247E+02 0.15005741661E+02
 0.11390718396E+02 0.85445628247E+01 0.65999018515E+01 0.53741148139E+01 0.46427509067E+01
 0.43105031013E+01 0.43100709848E+01 0.46421983943E+01 0.53746674171E+01 0.66015390149E+01
 0.85457890169E+01 0.11390178759E+02 0.15003777325E+02 0.19014784050E+02 0.22978216622E+02
 0.26477066856E+02 0.29122499112E+02 0.30559730570E+02 0.30558726095E+02 0.29120173422E+02
 0.26475059695E+02 0.17213201689E+02 0.13869854486E+02 0.10799301586E+02 0.83194064451E+01
 0.65524435431E+01 0.53741155479E+01 0.46250120318E+01 0.42274092202E+01 0.41047349260E+01
 0.42267781736E+01 0.46241791388E+01 0.53736241062E+01 0.65525628460E+01 0.83199577903E+01
 0.10799807757E+02 0.13869871241E+02 0.17212586961E+02 0.20423708408E+02 0.23096868216E+02
 0.24874208579E+02 0.25498704144E+02 0.24874851951E+02 0.23097912783E+02 0.20424745372E+02
 0.12282062976E+02 0.98863889890E+01 0.78970309830E+01 0.64137552337E+01 0.53552484960E+01
 0.46427522699E+01 0.42274098485E+01 0.40416104316E+01 0.40417503151E+01 0.42273502031E+01
 0.46417693047E+01 0.53535263437E+01 0.64123743864E+01 0.78967793540E+01 0.98869415528E+01
 0.12282501001E+02 0.14824507653E+02 0.17170111279E+02 0.18972756449E+02 0.19952516337E+02
 0.19952605686E+02 0.18973064039E+02 0.17170537392E+02 0.14824639484E+02 0.87787536493E+01
 0.73382499092E+01 0.61984881210E+01 0.53208933462E+01 0.46997744958E+01 0.43105049479E+01
 0.41047360779E+01 0.40417508684E+01 0.41058171018E+01 0.43115549033E+01 0.46997567766E+01
 0.53197593907E+01 0.61968907677E+01 0.73367846159E+01 0.87778351206E+01 0.10447894927E+02
 0.12153623326E+02 0.13637034832E+02 0.14647020600E+02 0.15004319214E+02 0.14644890303E+02
 0.13634302705E+02 0.12151912011E+02 0.10447716525E+02 0.67206767732E+01 0.59301283862E+01
 0.52848681564E+01 0.48097754640E+01 0.44946071024E+01 0.43100732926E+01 0.42267798749E+01
 0.42273513468E+01 0.43115554900E+01 0.44964097644E+01 0.48111571326E+01 0.52851343805E+01
 0.59289500642E+01 0.67185442260E+01 0.76368571714E+01 0.86407952155E+01 0.96078118210E+01
 0.10376824172E+02 0.10802624400E+02 0.10801184513E+02 0.10373636576E+02 0.96052582470E+01
 0.86404857337E+01 0.76385313119E+01 0.56460723094E+01 0.52695748064E+01 0.49934402082E+01
 0.48102159614E+01 0.46998528254E+01 0.46422013401E+01 0.46241815560E+01 0.46417711531E+01
 0.46997580052E+01 0.48111577212E+01 0.49952185854E+01 0.52710990270E+01 0.56462674401E+01
 0.61041764874E+01 0.66015240178E+01 0.70952375553E+01 0.75287204762E+01 0.78285149799E+01
 0.79356278043E+01 0.78281456425E+01 0.75287320134E+01 0.70962521948E+01 0.66032171251E+01
 0.61054075964E+01 0.52999653707E+01 0.52697178240E+01 0.52854288537E+01 0.53217167217E+01
 0.53558768104E+01 0.53746712598E+01 0.53736274074E+01 0.53535289675E+01 0.53197612490E+01
 0.52851354763E+01 0.52710994718E+01 0.53019947981E+01 0.53931353121E+01 0.55402708825E+01
 0.57185086591E+01 0.58918671431E+01 0.60266888062E+01 0.61006263837E+01 0.61015377497E+01
 0.60289480564E+01 0.58943482130E+01 0.57200743438E+01 0.55402942727E+01 0.53917203200E+01
 0.56464468728E+01 0.59300763850E+01 0.61984839736E+01 0.64139373925E+01 0.65535541552E+01
 0.66015440245E+01 0.65525671527E+01 0.64123777463E+01 0.61968931081E+01 0.59289514700E+01
 0.56462680923E+01 0.53931354855E+01 0.52009090206E+01 0.50782123789E+01 0.50138260568E+01
 0.49875766444E+01 0.49806091434E+01 0.49804479019E+01 0.49822028208E+01 0.49892230618E+01
 0.50139968001E+01 0.50767906121E+01 0.51990606136E+01 0.53920903792E+01 0.67204411541E+01
 0.73373707189E+01 0.78957008287E+01 0.83182708430E+01 0.85450014183E+01 0.85457959124E+01
 0.83199635583E+01 0.78967836120E+01 0.73367873163E+01 0.67185456386E+01 0.61041770289E+01
 0.55402709271E+01 0.50782122679E+01 0.47377682366E+01 0.45110811686E+01 0.43775405963E+01
 0.43168741254E+01 0.43169213591E+01 0.43772370546E+01 0.45097421362E+01 0.47356085195E+01
 0.50765236311E+01 0.55402944948E+01 0.61058453142E+01 0.87776646635E+01 0.98851984834E+01
 0.10797288156E+02 0.11388342883E+02 0.11592295521E+02 0.11390187626E+02 0.10799814846E+02
 0.98869463889E+01 0.87778377880E+01 0.76368582027E+01 0.66015240845E+01 0.57185082831E+01
 0.50138256077E+01 0.45110808833E+01 0.41915841209E+01 0.40195986420E+01 0.39654559103E+01
 0.40183561016E+01 0.41898832571E+01 0.45099435813E+01 0.50138842046E+01 0.57197131585E+01
 0.66032175720E+01 0.76380551015E+01 0.12281574865E+02 0.13869905354E+02 0.15004398328E+02
 0.15584814463E+02 0.15584469379E+02 0.15003787264E+02 0.13869878598E+02 0.12282505362E+02
 0.10447896672E+02 0.86407952285E+01 0.70952367609E+01 0.58918661230E+01 0.49875757130E+01
 0.43775399268E+01 0.40195982871E+01 0.38577281303E+01 0.38571832366E+01 0.40186905659E+01
 0.43776513928E+01 0.49892230453E+01 0.58940948624E+01 0.70965308597E+01 0.86404866306E+01
 0.10446658445E+02 0.17215054440E+02 0.19018608870E+02 0.20103482496E+02 0.20459741311E+02
 0.20100649238E+02 0.19014793260E+02 0.17212592824E+02 0.14824510073E+02 0.12153623101E+02
 0.96078101818E+01 0.75287185100E+01 0.60266870402E+01 0.49806076721E+01 0.43168730101E+01
 0.39654551264E+01 0.38571828053E+01 0.39656551458E+01 0.43177041406E+01 0.49821091746E+01
 0.60279894968E+01 0.75286814162E+01 0.96062749530E+01 0.12151913811E+02 0.14824491872E+02
 0.22981938969E+02 0.24660585610E+02 0.25471169252E+02 0.25469932375E+02 0.24657407835E+02
 0.22978223033E+02 0.20423711085E+02 0.17170110610E+02 0.13637031998E+02 0.10376820616E+02
 0.78285117964E+01 0.61006238964E+01 0.49804458860E+01 0.43169197336E+01 0.40183547948E+01
 0.40186896081E+01 0.43177036131E+01 0.49810578944E+01 0.61003034334E+01 0.78269303435E+01
 0.10374580218E+02 0.13635502314E+02 0.17170540472E+02 0.20426303380E+02 0.28868269348E+02
 0.30258335790E+02 0.30711239107E+02 0.30258800527E+02 0.28868714799E+02 0.26477069215E+02
 0.23096867071E+02 0.18972752568E+02 0.14647015331E+02 0.10802619217E+02 0.79356236684E+01
 0.61015346659E+01 0.49822002552E+01 0.43772348392E+01 0.41898813365E+01 0.43776498180E+01
 0.49821080087E+01 0.61003027711E+01 0.79338280565E+01 0.10801546839E+02 0.14647360740E+02
 0.18973999217E+02 0.23097917083E+02 0.26477276181E+02 0.34588309329E+02 0.35712462407E+02
 0.35714289320E+02 0.34592850977E+02 0.32386475699E+02 0.29122497822E+02 0.24874204497E+02
 0.19952510252E+02 0.15004312418E+02 0.10801178405E+02 0.78281409805E+01 0.60289444953E+01
 0.49892199169E+01 0.45097392650E+01 0.45099409869E+01 0.49892207701E+01 0.60279875774E+01
 0.78269287702E+01 0.10801545894E+02 0.15007038130E+02 0.19955939260E+02 0.24875493582E+02