   1   1   1   0
  0.1509714E+02  0.2774192E-09  0.2774192E-09  0.2774192E-09  0.5000000E-15
   1.0000000000000000E-004
  CAR 
 unknown system                          
     45.54157494     -0.96363962  301     11.27903247      1.00000000
     -0.964  0.0000E+00  0.0000E+00
     -0.809  0.0000E+00  0.0000E+00
     -0.654  0.0000E+00  0.0000E+00
     -0.499  0.0000E+00  0.0000E+00
     -0.344  0.0000E+00  0.0000E+00
     -0.189  0.0000E+00  0.0000E+00
     -0.034  0.0000E+00  0.0000E+00
      0.121  0.0000E+00  0.0000E+00
      0.276  0.0000E+00  0.0000E+00
      0.432  0.0000E+00  0.0000E+00
      0.587  0.0000E+00  0.0000E+00
      0.742  0.0000E+00  0.0000E+00
      0.897  0.9129E-14  0.1415E-14
      1.052  0.6637E-04  0.1029E-04
      1.207  0.2374E-01  0.3690E-02
      1.362  0.1397E-02  0.3906E-02
      1.517  0.2887E-10  0.3906E-02
      1.672  0.1244E-02  0.4099E-02
      1.827  0.1943E+00  0.3422E-01
      1.982  0.1044E+00  0.5041E-01
      2.137  0.5281E-01  0.5859E-01
      2.292  0.1380E-06  0.5859E-01
      2.447  0.2183E-12  0.5859E-01
      2.602  0.1064E-02  0.5876E-01
      2.757  0.2875E+00  0.1033E+00
      2.912  0.1378E-01  0.1055E+00
      3.067  0.1807E-03  0.1055E+00
      3.222  0.6519E+00  0.2066E+00
      3.377  0.1542E+00  0.2305E+00
      3.532  0.5920E-07  0.2305E+00
      3.687  0.1804E-09  0.2305E+00
      3.842  0.8576E-02  0.2318E+00
      3.997  0.3299E+00  0.2829E+00
      4.152  0.5750E+00  0.3721E+00
      4.307  0.3653E+00  0.4287E+00
      4.462  0.9644E+00  0.5782E+00
      4.617  0.1827E+01  0.8614E+00
      4.772  0.7594E+00  0.9791E+00
      4.927  0.4612E+00  0.1051E+01
      5.082  0.1094E+01  0.1220E+01
      5.237  0.1649E+01  0.1476E+01
      5.392  0.1721E+01  0.1743E+01
      5.547  0.2517E+01  0.2133E+01
      5.702  0.6520E+00  0.2234E+01
      5.857  0.3925E+00  0.2295E+01
      6.012  0.6218E+00  0.2391E+01
      6.167  0.1590E+01  0.2638E+01
      6.322  0.1129E+01  0.2813E+01
      6.477  0.7116E+00  0.2923E+01
      6.632  0.1554E+01  0.3164E+01
      6.787  0.2078E+01  0.3486E+01
      6.942  0.1154E+01  0.3665E+01
      7.097  0.2130E+01  0.3995E+01
      7.252  0.1728E+01  0.4263E+01
      7.407  0.3223E+00  0.4313E+01
      7.562  0.1537E+01  0.4551E+01
      7.717  0.2666E+01  0.4964E+01
      7.872  0.1800E+01  0.5243E+01
      8.027  0.3403E+01  0.5771E+01
      8.182  0.1459E+01  0.5997E+01
      8.337  0.1122E+01  0.6171E+01
      8.492  0.5074E+00  0.6249E+01
      8.647  0.1037E+01  0.6410E+01
      8.802  0.1005E+01  0.6566E+01
      8.957  0.2023E+01  0.6880E+01
      9.112  0.8044E+00  0.7004E+01
      9.268  0.2357E+01  0.7370E+01
      9.423  0.1706E+01  0.7634E+01
      9.578  0.1088E+01  0.7803E+01
      9.733  0.1635E+01  0.8056E+01
      9.888  0.8948E+00  0.8195E+01
     10.043  0.4308E+00  0.8262E+01
     10.198  0.5267E+00  0.8343E+01
     10.353  0.7359E+00  0.8457E+01
     10.508  0.9406E+00  0.8603E+01
     10.663  0.2124E+01  0.8933E+01
     10.818  0.1860E+01  0.9221E+01
     10.973  0.1783E+01  0.9497E+01
     11.128  0.2363E+01  0.9864E+01
     11.283  0.9351E+00  0.1001E+02
     11.438  0.2833E+01  0.1045E+02
     11.593  0.8034E+00  0.1057E+02
     11.748  0.3522E+00  0.1063E+02
     11.903  0.4669E+00  0.1070E+02
     12.058  0.8364E-04  0.1070E+02
     12.213  0.0000E+00  0.1070E+02
     12.368  0.0000E+00  0.1070E+02
     12.523  0.0000E+00  0.1070E+02
     12.678  0.5558E-05  0.1070E+02
     12.833  0.3267E+00  0.1075E+02
     12.988  0.2781E+00  0.1079E+02
     13.143  0.1318E+00  0.1081E+02
     13.298  0.1898E+01  0.1111E+02
     13.453  0.6992E+00  0.1122E+02
     13.608  0.6850E-01  0.1123E+02
     13.763  0.6714E-08  0.1123E+02
     13.918  0.5190E-12  0.1123E+02
     14.073  0.2285E-02  0.1123E+02
     14.228  0.5764E+00  0.1132E+02
     14.383  0.5067E+00  0.1139E+02
     14.538  0.1242E+00  0.1141E+02
     14.693  0.5800E-07  0.1141E+02
     14.848  0.0000E+00  0.1141E+02
     15.003  0.6870E-07  0.1141E+02
     15.158  0.1297E+00  0.1143E+02
     15.313  0.4753E+00  0.1151E+02
     15.468  0.5221E+00  0.1159E+02
     15.623  0.8266E-01  0.1160E+02
     15.778  0.5005E+00  0.1168E+02
     15.933  0.1041E+00  0.1170E+02
     16.088  0.1797E-01  0.1170E+02
     16.243  0.2837E+00  0.1174E+02
     16.398  0.7148E-03  0.1174E+02
     16.553  0.7814E-03  0.1174E+02
     16.708  0.1062E+01  0.1191E+02
     16.863  0.5704E+00  0.1200E+02
     17.018  0.1898E+00  0.1202E+02
     17.173  0.3605E+00  0.1208E+02
     17.328  0.3441E-01  0.1209E+02
     17.483  0.3103E+00  0.1213E+02
     17.638  0.2944E+00  0.1218E+02
     17.793  0.3019E-05  0.1218E+02
     17.948  0.1430E-02  0.1218E+02
     18.103  0.2898E+00  0.1222E+02
     18.259  0.1128E-01  0.1223E+02
     18.414  0.9452E+00  0.1237E+02
     18.569  0.9367E+00  0.1252E+02
     18.724  0.2797E+00  0.1256E+02
     18.879  0.9612E+00  0.1271E+02
     19.034  0.6950E-01  0.1272E+02
     19.189  0.2842E+00  0.1277E+02
     19.344  0.7491E-03  0.1277E+02
     19.499  0.4291E-03  0.1277E+02
     19.654  0.2775E+00  0.1281E+02
     19.809  0.2443E-01  0.1281E+02
     19.964  0.3545E-05  0.1281E+02
     20.119  0.1375E+00  0.1283E+02
     20.274  0.7377E+00  0.1295E+02
     20.429  0.6727E-02  0.1295E+02
     20.584  0.3205E+00  0.1300E+02
     20.739  0.9106E+00  0.1314E+02
     20.894  0.5803E+00  0.1323E+02
     21.049  0.2967E-02  0.1323E+02
     21.204  0.1929E+00  0.1326E+02
     21.359  0.4215E+00  0.1333E+02
     21.514  0.2910E+00  0.1337E+02
     21.669  0.1747E-02  0.1337E+02
     21.824  0.7514E+00  0.1349E+02
     21.979  0.5468E+00  0.1357E+02
     22.134  0.4916E+00  0.1365E+02
     22.289  0.2447E-01  0.1365E+02
     22.444  0.5362E-03  0.1365E+02
     22.599  0.1034E+01  0.1381E+02
     22.754  0.2786E+00  0.1386E+02
     22.909  0.4734E-01  0.1386E+02
     23.064  0.1595E+00  0.1389E+02
     23.219  0.5596E+00  0.1397E+02
     23.374  0.3118E+00  0.1402E+02
     23.529  0.6277E+00  0.1412E+02
     23.684  0.3242E+00  0.1417E+02
     23.839  0.1465E+01  0.1440E+02
     23.994  0.3912E-01  0.1440E+02
     24.149  0.5876E+00  0.1449E+02
     24.304  0.1176E+00  0.1451E+02
     24.459  0.3439E+00  0.1457E+02
     24.614  0.3233E+00  0.1462E+02
     24.769  0.9520E+00  0.1476E+02
     24.924  0.1029E+01  0.1492E+02
     25.079  0.1413E-01  0.1493E+02
     25.234  0.3845E-06  0.1493E+02
     25.389  0.1953E+00  0.1496E+02
     25.544  0.5033E+00  0.1503E+02
     25.699  0.9566E+00  0.1518E+02
     25.854  0.8647E+00  0.1532E+02
     26.009  0.2316E+00  0.1535E+02
     26.164  0.7121E+00  0.1546E+02
     26.319  0.4807E+00  0.1554E+02
     26.474  0.2362E+01  0.1590E+02
     26.629  0.3710E+00  0.1596E+02
     26.784  0.1320E-01  0.1596E+02
     26.939  0.8321E+00  0.1609E+02
     27.095  0.1367E+01  0.1630E+02
     27.250  0.2360E+00  0.1634E+02
     27.405  0.5668E+00  0.1643E+02
     27.560  0.1978E+01  0.1673E+02
     27.715  0.6648E+00  0.1684E+02
     27.870  0.1461E+00  0.1686E+02
     28.025  0.1937E+00  0.1689E+02
     28.180  0.8618E-05  0.1689E+02
     28.335  0.2026E-04  0.1689E+02
     28.490  0.6919E+00  0.1700E+02
     28.645  0.1021E+01  0.1716E+02
     28.800  0.4266E-01  0.1716E+02
     28.955  0.1396E+00  0.1718E+02
     29.110  0.5162E+00  0.1726E+02
     29.265  0.1012E+01  0.1742E+02
     29.420  0.1163E+01  0.1760E+02
     29.575  0.7552E+00  0.1772E+02
     29.730  0.3638E-03  0.1772E+02
     29.885  0.4624E+00  0.1779E+02
     30.040  0.7472E+00  0.1791E+02
     30.195  0.4392E+00  0.1797E+02
     30.350  0.4927E+00  0.1805E+02
     30.505  0.4318E+00  0.1812E+02
     30.660  0.2973E+00  0.1816E+02
     30.815  0.4951E+00  0.1824E+02
     30.970  0.8322E+00  0.1837E+02
     31.125  0.6088E+00  0.1846E+02
     31.280  0.3199E-01  0.1847E+02
     31.435  0.8727E+00  0.1860E+02
     31.590  0.8955E+00  0.1874E+02
     31.745  0.7267E+00  0.1886E+02
     31.900  0.1934E+01  0.1916E+02
     32.055  0.9343E+00  0.1930E+02
     32.210  0.2843E-01  0.1930E+02
     32.365  0.9999E-01  0.1932E+02
     32.520  0.9065E-01  0.1933E+02
     32.675  0.7294E+00  0.1945E+02
     32.830  0.5779E+00  0.1954E+02
     32.985  0.8036E+00  0.1966E+02
     33.140  0.5695E+00  0.1975E+02
     33.295  0.6798E-01  0.1976E+02
     33.450  0.6845E+00  0.1987E+02
     33.605  0.9591E-02  0.1987E+02
     33.760  0.1083E+01  0.2004E+02
     33.915  0.4551E+00  0.2011E+02
     34.070  0.7790E+00  0.2023E+02
     34.225  0.2713E+00  0.2027E+02
     34.380  0.2297E+00  0.2030E+02
     34.535  0.3777E-02  0.2031E+02
     34.690  0.3464E+00  0.2036E+02
     34.845  0.7359E+00  0.2047E+02
     35.000  0.9834E-01  0.2049E+02
     35.155  0.4053E-03  0.2049E+02
     35.310  0.5320E+00  0.2057E+02
     35.465  0.7239E-01  0.2058E+02
     35.620  0.1115E+01  0.2075E+02
     35.775  0.1915E+01  0.2105E+02
     35.930  0.2941E+00  0.2110E+02
     36.086  0.1823E-02  0.2110E+02
     36.241  0.5588E-01  0.2111E+02
     36.396  0.1709E+00  0.2113E+02
     36.551  0.3034E-04  0.2113E+02
     36.706  0.5562E+00  0.2122E+02
     36.861  0.6536E+00  0.2132E+02
     37.016  0.5225E+00  0.2140E+02
     37.171  0.1725E+00  0.2143E+02
     37.326  0.9736E+00  0.2158E+02
     37.481  0.1073E+01  0.2175E+02
     37.636  0.1679E+01  0.2201E+02
     37.791  0.2084E+00  0.2204E+02
     37.946  0.3321E+00  0.2209E+02
     38.101  0.1233E+01  0.2228E+02
     38.256  0.1559E+00  0.2230E+02
     38.411  0.1651E-01  0.2231E+02
     38.566  0.2896E+00  0.2235E+02
     38.721  0.3219E+00  0.2240E+02
     38.876  0.1904E+01  0.2270E+02
     39.031  0.7793E+00  0.2282E+02
     39.186  0.1424E+01  0.2304E+02
     39.341  0.1294E+01  0.2324E+02
     39.496  0.3329E+00  0.2329E+02
     39.651  0.7090E+00  0.2340E+02
     39.806  0.7632E+00  0.2352E+02
     39.961  0.3024E+00  0.2357E+02
     40.116  0.1252E-01  0.2357E+02
     40.271  0.1730E+01  0.2384E+02
     40.426  0.1471E+00  0.2386E+02
     40.581  0.1287E+00  0.2388E+02
     40.736  0.4418E+00  0.2395E+02
     40.891  0.1629E+00  0.2397E+02
     41.046  0.2163E-02  0.2397E+02
     41.201  0.1469E+00  0.2400E+02
     41.356  0.2126E-02  0.2400E+02
     41.511  0.3551E-11  0.2400E+02
     41.666  0.0000E+00  0.2400E+02
     41.821  0.0000E+00  0.2400E+02
     41.976  0.0000E+00  0.2400E+02
     42.131  0.0000E+00  0.2400E+02
     42.286  0.0000E+00  0.2400E+02
     42.441  0.0000E+00  0.2400E+02
     42.596  0.0000E+00  0.2400E+02
     42.751  0.0000E+00  0.2400E+02
     42.906  0.0000E+00  0.2400E+02
     43.061  0.0000E+00  0.2400E+02
     43.216  0.2830E-10  0.2400E+02
     43.371  0.1397E-02  0.2400E+02
     43.526  0.2374E-01  0.2400E+02
     43.681  0.6637E-04  0.2400E+02
     43.836  0.0000E+00  0.2400E+02
     43.991  0.0000E+00  0.2400E+02
     44.146  0.0000E+00  0.2400E+02
     44.301  0.0000E+00  0.2400E+02
     44.456  0.0000E+00  0.2400E+02
     44.611  0.0000E+00  0.2400E+02
     44.766  0.0000E+00  0.2400E+02
     44.922  0.0000E+00  0.2400E+02
     45.077  0.0000E+00  0.2400E+02
     45.232  0.0000E+00  0.2400E+02
     45.387  0.0000E+00  0.2400E+02
     45.542  0.0000E+00  0.2400E+02
     45.54157494     -0.96363962  301     11.27903247      1.00000000
     -0.964  0.0000E+00  0.0000E+00  0.0000E+00  0.0000E+00  0.0000E+00  0.0000E+00  0.0000E+00  0.0000E+00  0.0000E+00
     -0.809  0.0000E+00  0.0000E+00  0.0000E+00  0.0000E+00  0.0000E+00  0.0000E+00  0.0000E+00  0.0000E+00  0.0000E+00
     -0.654  0.0000E+00  0.0000E+00  0.0000E+00  0.0000E+00  0.0000E+00  0.0000E+00  0.0000E+00  0.0000E+00  0.0000E+00
     -0.499  0.0000E+00  0.0000E+00  0.0000E+00  0.0000E+00  0.0000E+00  0.0000E+00  0.0000E+00  0.0000E+00  0.0000E+00
     -0.344  0.0000E+00  0.0000E+00  0.0000E+00  0.0000E+00  0.0000E+00  0.0000E+00  0.0000E+00  0.0000E+00  0.0000E+00
     -0.189  0.0000E+00  0.0000E+00  0.0000E+00  0.0000E+00  0.0000E+00  0.0000E+00  0.0000E+00  0.0000E+00  0.0000E+00
     -0.034  0.0000E+00  0.0000E+00  0.0000E+00  0.0000E+00  0.0000E+00  0.0000E+00  0.0000E+00  0.0000E+00  0.0000E+00
      0.121  0.0000E+00  0.0000E+00  0.0000E+00  0.0000E+00  0.0000E+00  0.0000E+00  0.0000E+00  0.0000E+00  0.0000E+00
      0.276  0.0000E+00  0.0000E+00  0.0000E+00  0.0000E+00  0.0000E+00  0.0000E+00  0.0000E+00  0.0000E+00  0.0000E+00
      0.432  0.0000E+00  0.0000E+00  0.0000E+00  0.0000E+00  0.0000E+00  0.0000E+00  0.0000E+00  0.0000E+00  0.0000E+00
      0.587  0.0000E+00  0.0000E+00  0.0000E+00  0.0000E+00  0.0000E+00  0.0000E+00  0.0000E+00  0.0000E+00  0.0000E+00
      0.742  0.0000E+00  0.0000E+00  0.0000E+00  0.0000E+00  0.0000E+00  0.0000E+00  0.0000E+00  0.0000E+00  0.0000E+00
      0.897  0.7433E-14  0.4156E-29  0.3637E-29  0.1216E-28  0.2831E-26  0.9436E-26  0.1077E-25  0.1875E-25  0.7296E-27
      1.052  0.5405E-04  0.3022E-19  0.2644E-19  0.8842E-19  0.2058E-16  0.6861E-16  0.7828E-16  0.1363E-15  0.5305E-17
      1.207  0.1933E-01  0.1081E-16  0.9456E-17  0.3162E-16  0.7361E-14  0.2453E-13  0.2799E-13  0.4876E-13  0.1897E-14
      1.362  0.1137E-02  0.6359E-18  0.5564E-18  0.1861E-17  0.4331E-15  0.1444E-14  0.1647E-14  0.2869E-14  0.1116E-15
      1.517  0.2349E-10  0.6853E-14  0.6854E-14  0.6853E-14  0.3415E-15  0.3415E-15  0.7683E-15  0.6830E-15  0.9389E-15
      1.672  0.9630E-03  0.1481E-04  0.1481E-04  0.1481E-04  0.7381E-06  0.7381E-06  0.1661E-05  0.1476E-05  0.2030E-05
      1.827  0.1504E+00  0.2314E-02  0.2314E-02  0.2314E-02  0.1153E-03  0.1153E-03  0.2594E-03  0.2305E-03  0.3170E-03
      1.982  0.7942E-01  0.1695E-02  0.1695E-02  0.1695E-02  0.1602E-03  0.1602E-03  0.6677E-04  0.8545E-04  0.2941E-04
      2.137  0.4013E-01  0.8712E-03  0.8712E-03  0.8712E-03  0.8407E-04  0.8407E-04  0.3153E-04  0.4203E-04  0.1051E-04
      2.292  0.1049E-06  0.2277E-08  0.2277E-08  0.2277E-08  0.2197E-09  0.2197E-09  0.8239E-10  0.1099E-09  0.2746E-10
      2.447  0.1536E-12  0.6316E-14  0.6319E-14  0.6318E-14  0.8098E-15  0.8100E-15  0.1420E-14  0.1298E-14  0.1664E-14
      2.602  0.7484E-03  0.3077E-04  0.3078E-04  0.3077E-04  0.3945E-05  0.3946E-05  0.6919E-05  0.6324E-05  0.8107E-05
      2.757  0.2023E+00  0.8320E-02  0.8320E-02  0.8320E-02  0.1067E-02  0.1067E-02  0.1870E-02  0.1710E-02  0.2192E-02
      2.912  0.9697E-02  0.3988E-03  0.3987E-03  0.3988E-03  0.5113E-04  0.5113E-04  0.8963E-04  0.8194E-04  0.1050E-03
      3.067  0.1158E-03  0.6192E-05  0.6193E-05  0.6193E-05  0.2293E-05  0.2293E-05  0.3319E-05  0.3115E-05  0.3729E-05
      3.222  0.4188E+00  0.2255E-01  0.2255E-01  0.2255E-01  0.8201E-02  0.8202E-02  0.1145E-01  0.1080E-01  0.1275E-01
      3.377  0.9917E-01  0.5357E-02  0.5357E-02  0.5357E-02  0.1932E-02  0.1932E-02  0.2649E-02  0.2506E-02  0.2936E-02
      3.532  0.3814E-07  0.2075E-08  0.2074E-08  0.2075E-08  0.7352E-09  0.7350E-09  0.9691E-09  0.9222E-09  0.1063E-08
      3.687  0.9647E-10  0.8258E-11  0.8258E-11  0.8258E-11  0.9112E-11  0.9112E-11  0.3417E-11  0.4556E-11  0.1139E-11
      3.842  0.4581E-02  0.3916E-03  0.3916E-03  0.3916E-03  0.4335E-03  0.4335E-03  0.1656E-03  0.2192E-03  0.5849E-04
      3.997  0.1376E+00  0.7857E-02  0.7858E-02  0.7858E-02  0.1876E-01  0.1876E-01  0.2874E-01  0.2674E-01  0.3273E-01
      4.152  0.2622E+00  0.1759E-01  0.1759E-01  0.1759E-01  0.2076E-01  0.2076E-01  0.4522E-01  0.4033E-01  0.5500E-01
      4.307  0.1353E+00  0.9289E-02  0.9289E-02  0.9289E-02  0.3038E-01  0.3038E-01  0.3109E-01  0.3094E-01  0.3137E-01
      4.462  0.3589E+00  0.2810E-01  0.2811E-01  0.2810E-01  0.5672E-01  0.5672E-01  0.9312E-01  0.8584E-01  0.1077E+00
      4.617  0.4603E+00  0.3218E-01  0.3218E-01  0.3218E-01  0.2037E+00  0.2037E+00  0.2195E+00  0.2164E+00  0.2259E+00
      4.772  0.1459E+00  0.1583E-01  0.1583E-01  0.1583E-01  0.1270E+00  0.1270E+00  0.7582E-01  0.8604E-01  0.5536E-01
      4.927  0.6512E-01  0.8235E-02  0.8235E-02  0.8235E-02  0.9966E-01  0.9966E-01  0.4138E-01  0.5303E-01  0.1806E-01
      5.082  0.5862E-01  0.7525E-02  0.7526E-02  0.7525E-02  0.1555E+00  0.1555E+00  0.2032E+00  0.1936E+00  0.2223E+00
      5.237  0.1655E+00  0.2737E-01  0.2737E-01  0.2737E-01  0.2531E+00  0.2531E+00  0.2459E+00  0.2474E+00  0.2431E+00
      5.392  0.3044E+00  0.4317E-01  0.4317E-01  0.4317E-01  0.1479E+00  0.1479E+00  0.2701E+00  0.2457E+00  0.3191E+00
      5.547  0.1990E+00  0.3874E-01  0.3874E-01  0.3874E-01  0.3749E+00  0.3749E+00  0.4087E+00  0.4019E+00  0.4222E+00
      5.702  0.2166E-01  0.1040E-01  0.1040E-01  0.1040E-01  0.8993E-01  0.8993E-01  0.1203E+00  0.1142E+00  0.1324E+00
      5.857  0.2461E-02  0.8514E-02  0.8514E-02  0.8514E-02  0.5497E-01  0.5497E-01  0.7313E-01  0.6950E-01  0.8039E-01
      6.012  0.2237E-02  0.1436E-01  0.1437E-01  0.1436E-01  0.9238E-01  0.9238E-01  0.1124E+00  0.1084E+00  0.1204E+00
      6.167  0.1348E-01  0.3882E-01  0.3882E-01  0.3882E-01  0.2673E+00  0.2673E+00  0.2626E+00  0.2635E+00  0.2607E+00
      6.322  0.4140E-02  0.2626E-01  0.2626E-01  0.2626E-01  0.1711E+00  0.1711E+00  0.2015E+00  0.1955E+00  0.2137E+00
      6.477  0.4910E-01  0.3293E-01  0.3293E-01  0.3293E-01  0.1081E+00  0.1081E+00  0.9123E-01  0.9461E-01  0.8449E-01
      6.632  0.8703E-02  0.3130E-01  0.3130E-01  0.3130E-01  0.3005E+00  0.3005E+00  0.2417E+00  0.2535E+00  0.2182E+00
      6.787  0.1321E-01  0.6741E-01  0.6741E-01  0.6741E-01  0.3441E+00  0.3441E+00  0.3296E+00  0.3325E+00  0.3239E+00
      6.942  0.1914E-01  0.3417E-01  0.3417E-01  0.3417E-01  0.1101E+00  0.1101E+00  0.2361E+00  0.2109E+00  0.2865E+00
      7.097  0.8646E-01  0.4981E-01  0.4981E-01  0.4981E-01  0.2955E+00  0.2955E+00  0.3776E+00  0.3612E+00  0.4105E+00
      7.252  0.5022E-01  0.4697E-01  0.4697E-01  0.4697E-01  0.2977E+00  0.2977E+00  0.2680E+00  0.2739E+00  0.2561E+00
      7.407  0.1572E-02  0.1445E-02  0.1445E-02  0.1445E-02  0.5199E-01  0.5199E-01  0.6483E-01  0.6226E-01  0.6996E-01
      7.562  0.1923E-01  0.1170E-01  0.1170E-01  0.1170E-01  0.3131E+00  0.3131E+00  0.2602E+00  0.2707E+00  0.2390E+00
      7.717  0.3940E-01  0.9767E-01  0.9767E-01  0.9767E-01  0.3518E+00  0.3518E+00  0.4733E+00  0.4490E+00  0.5218E+00
      7.872  0.4736E-01  0.5520E-01  0.5520E-01  0.5520E-01  0.2404E+00  0.2404E+00  0.3244E+00  0.3076E+00  0.3580E+00
      8.027  0.1090E+00  0.6675E-01  0.6674E-01  0.6674E-01  0.5644E+00  0.5644E+00  0.5874E+00  0.5828E+00  0.5966E+00
      8.182  0.2286E-01  0.1199E-01  0.1199E-01  0.1199E-01  0.2519E+00  0.2519E+00  0.2744E+00  0.2699E+00  0.2834E+00
      8.337  0.1027E-01  0.5510E-02  0.5510E-02  0.5510E-02  0.2067E+00  0.2068E+00  0.2110E+00  0.2101E+00  0.2127E+00
      8.492  0.7344E-02  0.2846E-01  0.2846E-01  0.2846E-01  0.5398E-01  0.5398E-01  0.8693E-01  0.8034E-01  0.1001E+00
      8.647  0.2526E-01  0.6137E-01  0.6137E-01  0.6137E-01  0.1665E+00  0.1665E+00  0.1346E+00  0.1410E+00  0.1219E+00
      8.802  0.1237E-01  0.5392E-01  0.5392E-01  0.5392E-01  0.1825E+00  0.1825E+00  0.1292E+00  0.1398E+00  0.1078E+00
      8.957  0.3397E-01  0.5213E-01  0.5213E-01  0.5213E-01  0.4422E+00  0.4422E+00  0.2823E+00  0.3143E+00  0.2184E+00
      9.112  0.5112E-03  0.3303E-02  0.3302E-02  0.3303E-02  0.2137E+00  0.2137E+00  0.1172E+00  0.1365E+00  0.7868E-01
      9.268  0.2185E-01  0.3710E-01  0.3710E-01  0.3710E-01  0.4033E+00  0.4033E+00  0.4326E+00  0.4268E+00  0.4444E+00
      9.423  0.2179E-01  0.1452E-01  0.1452E-01  0.1452E-01  0.4217E+00  0.4217E+00  0.2485E+00  0.2831E+00  0.1792E+00
      9.578  0.5711E-03  0.2917E-02  0.2917E-02  0.2917E-02  0.2317E+00  0.2317E+00  0.1938E+00  0.2014E+00  0.1787E+00
      9.733  0.1973E-01  0.2529E-01  0.2529E-01  0.2529E-01  0.4207E+00  0.4207E+00  0.2175E+00  0.2582E+00  0.1362E+00
      9.888  0.1753E-01  0.3374E-01  0.3374E-01  0.3374E-01  0.1577E+00  0.1577E+00  0.1382E+00  0.1421E+00  0.1303E+00
     10.043  0.2784E-03  0.2230E-02  0.2230E-02  0.2230E-02  0.1317E+00  0.1317E+00  0.5315E-01  0.6886E-01  0.2173E-01
     10.198  0.2113E-02  0.9307E-03  0.9307E-03  0.9307E-03  0.1500E+00  0.1500E+00  0.7437E-01  0.8950E-01  0.4411E-01
     10.353  0.3471E-01  0.2536E-01  0.2536E-01  0.2536E-01  0.1840E+00  0.1840E+00  0.7980E-01  0.1006E+00  0.3812E-01
     10.508  0.9268E-02  0.1213E-01  0.1213E-01  0.1213E-01  0.2682E+00  0.2682E+00  0.1172E+00  0.1474E+00  0.5677E-01
     10.663  0.2062E-02  0.1378E-01  0.1378E-01  0.1378E-01  0.4189E+00  0.4189E+00  0.3917E+00  0.3971E+00  0.3808E+00
     10.818  0.1067E-02  0.7407E-02  0.7408E-02  0.7408E-02  0.2758E+00  0.2758E+00  0.4008E+00  0.3758E+00  0.4508E+00
     10.973  0.3975E-01  0.5179E-01  0.5179E-01  0.5179E-01  0.2373E+00  0.2373E+00  0.3345E+00  0.3151E+00  0.3734E+00
     11.128  0.5263E-01  0.2634E-01  0.2634E-01  0.2634E-01  0.4402E+00  0.4402E+00  0.4267E+00  0.4294E+00  0.4213E+00
     11.283  0.2481E-01  0.7775E-02  0.7774E-02  0.7775E-02  0.1775E+00  0.1774E+00  0.1696E+00  0.1712E+00  0.1665E+00
     11.438  0.3416E-01  0.1048E-01  0.1049E-01  0.1048E-01  0.4714E+00  0.4714E+00  0.5807E+00  0.5589E+00  0.6245E+00
     11.593  0.4897E-04  0.1092E-03  0.1092E-03  0.1092E-03  0.1388E+00  0.1388E+00  0.1694E+00  0.1632E+00  0.1816E+00
     11.748  0.2551E-10  0.5024E-04  0.5024E-04  0.5024E-04  0.4887E-01  0.4888E-01  0.8115E-01  0.7470E-01  0.9406E-01
     11.903  0.3751E-10  0.1390E-09  0.1390E-09  0.1390E-09  0.5129E-01  0.5130E-01  0.1154E+00  0.1026E+00  0.1411E+00
     12.058  0.6683E-14  0.3074E-16  0.1463E-16  0.2811E-16  0.9188E-05  0.9189E-05  0.2067E-04  0.1838E-04  0.2527E-04
     12.213  0.0000E+00  0.0000E+00  0.0000E+00  0.0000E+00  0.0000E+00  0.0000E+00  0.0000E+00  0.0000E+00  0.0000E+00
     12.368  0.0000E+00  0.0000E+00  0.0000E+00  0.0000E+00  0.0000E+00  0.0000E+00  0.0000E+00  0.0000E+00  0.0000E+00
     12.523  0.0000E+00  0.0000E+00  0.0000E+00  0.0000E+00  0.0000E+00  0.0000E+00  0.0000E+00  0.0000E+00  0.0000E+00
     12.678  0.5073E-06  0.3386E-06  0.3382E-06  0.3385E-06  0.7375E-06  0.7362E-06  0.7385E-06  0.7391E-06  0.7412E-06
     12.833  0.2982E-01  0.1989E-01  0.1989E-01  0.1989E-01  0.4329E-01  0.4328E-01  0.4346E-01  0.4344E-01  0.4355E-01
     12.988  0.2538E-01  0.1693E-01  0.1694E-01  0.1693E-01  0.3684E-01  0.3685E-01  0.3702E-01  0.3698E-01  0.3707E-01
     13.143  0.1315E-01  0.1661E-01  0.1661E-01  0.1661E-01  0.1077E-01  0.1077E-01  0.1175E-01  0.1156E-01  0.1215E-01
     13.298  0.2265E+00  0.1306E+00  0.1306E+00  0.1306E+00  0.2191E+00  0.2191E+00  0.2380E+00  0.2342E+00  0.2456E+00
     13.453  0.9112E-01  0.5447E-01  0.5447E-01  0.5447E-01  0.6925E-01  0.6925E-01  0.8577E-01  0.8246E-01  0.9237E-01
     13.608  0.1038E-01  0.4753E-02  0.4756E-02  0.4754E-02  0.6647E-02  0.6652E-02  0.8747E-02  0.8323E-02  0.9578E-02
     13.763  0.1017E-08  0.4657E-09  0.4665E-09  0.4658E-09  0.6505E-09  0.6521E-09  0.8585E-09  0.8157E-09  0.9386E-09
     13.918  0.4830E-13  0.7168E-13  0.7164E-13  0.7168E-13  0.2992E-13  0.2989E-13  0.4989E-13  0.4591E-13  0.5793E-13
     14.073  0.2127E-03  0.3156E-03  0.3155E-03  0.3156E-03  0.1317E-03  0.1316E-03  0.2197E-03  0.2022E-03  0.2551E-03
     14.228  0.5365E-01  0.7959E-01  0.7960E-01  0.7959E-01  0.3321E-01  0.3321E-01  0.5544E-01  0.5099E-01  0.6433E-01
     14.383  0.6514E-01  0.5231E-01  0.5231E-01  0.5231E-01  0.4232E-01  0.4232E-01  0.5392E-01  0.5161E-01  0.5857E-01
     14.538  0.1621E-01  0.1259E-01  0.1259E-01  0.1259E-01  0.1055E-01  0.1055E-01  0.1329E-01  0.1274E-01  0.1439E-01
     14.693  0.7570E-08  0.5876E-08  0.5884E-08  0.5877E-08  0.4924E-08  0.4927E-08  0.6210E-08  0.5949E-08  0.6718E-08
     14.848  0.0000E+00  0.0000E+00  0.0000E+00  0.0000E+00  0.0000E+00  0.0000E+00  0.0000E+00  0.0000E+00  0.0000E+00
     15.003  0.2090E-07  0.4782E-08  0.4769E-08  0.4781E-08  0.3995E-08  0.3983E-08  0.5522E-08  0.5226E-08  0.6157E-08
     15.158  0.3945E-01  0.9021E-02  0.9015E-02  0.9021E-02  0.7527E-02  0.7520E-02  0.1044E-01  0.9864E-02  0.1162E-01
     15.313  0.1446E+00  0.3304E-01  0.3305E-01  0.3304E-01  0.2755E-01  0.2756E-01  0.3829E-01  0.3614E-01  0.4258E-01
     15.468  0.1815E+00  0.3101E-01  0.3101E-01  0.3101E-01  0.2974E-01  0.2973E-01  0.4199E-01  0.3954E-01  0.4690E-01
     15.623  0.2868E-01  0.4928E-02  0.4932E-02  0.4928E-02  0.4709E-02  0.4712E-02  0.6650E-02  0.6260E-02  0.7420E-02
     15.778  0.4595E-08  0.8465E-01  0.8465E-01  0.8465E-01  0.4119E-01  0.4119E-01  0.3664E-01  0.3755E-01  0.3483E-01
     15.933  0.3210E-10  0.1761E-01  0.1761E-01  0.1761E-01  0.8568E-02  0.8570E-02  0.7627E-02  0.7814E-02  0.7245E-02
     16.088  0.3190E-11  0.3642E-02  0.3642E-02  0.3642E-02  0.6080E-03  0.6080E-03  0.1368E-02  0.1216E-02  0.1672E-02
     16.243  0.5035E-10  0.5749E-01  0.5749E-01  0.5749E-01  0.9597E-02  0.9597E-02  0.2159E-01  0.1919E-01  0.2639E-01
     16.398  0.1319E-12  0.1448E-03  0.1448E-03  0.1448E-03  0.2418E-04  0.2418E-04  0.5440E-04  0.4836E-04  0.6649E-04
     16.553  0.2225E-03  0.7187E-04  0.7182E-04  0.7187E-04  0.4321E-04  0.4317E-04  0.6158E-04  0.5792E-04  0.6901E-04
     16.708  0.3023E+00  0.9763E-01  0.9762E-01  0.9763E-01  0.5867E-01  0.5866E-01  0.8372E-01  0.7871E-01  0.9374E-01
     16.863  0.2645E+00  0.1749E-01  0.1750E-01  0.1749E-01  0.2538E-01  0.2537E-01  0.4715E-01  0.4279E-01  0.5587E-01
     17.018  0.9968E-01  0.2175E-02  0.2174E-02  0.2175E-02  0.7492E-02  0.7498E-02  0.1546E-01  0.1387E-01  0.1864E-01
     17.173  0.1833E+00  0.1671E-01  0.1671E-01  0.1671E-01  0.6895E-02  0.6893E-02  0.1531E-01  0.1362E-01  0.1868E-01
     17.328  0.1734E-01  0.1187E-03  0.1188E-03  0.1187E-03  0.1632E-02  0.1633E-02  0.3671E-02  0.3265E-02  0.4484E-02
     17.483  0.1410E+00  0.8998E-02  0.8994E-02  0.8998E-02  0.1278E-01  0.1277E-01  0.2840E-01  0.2527E-01  0.3466E-01
     17.638  0.1338E+00  0.8534E-02  0.8539E-02  0.8535E-02  0.1212E-01  0.1213E-01  0.2695E-01  0.2399E-01  0.3286E-01
     17.793  0.1372E-05  0.8745E-07  0.8770E-07  0.8746E-07  0.1242E-06  0.1246E-06  0.2763E-06  0.2464E-06  0.3365E-06
     17.948  0.4509E-12  0.2806E-03  0.2806E-03  0.2806E-03  0.5678E-04  0.5678E-04  0.1278E-03  0.1136E-03  0.1561E-03
     18.103  0.9138E-10  0.5686E-01  0.5685E-01  0.5686E-01  0.1151E-01  0.1151E-01  0.2589E-01  0.2301E-01  0.3164E-01
     18.259  0.3969E-04  0.2203E-02  0.2203E-02  0.2203E-02  0.4466E-03  0.4466E-03  0.9988E-03  0.8884E-03  0.1220E-02
     18.414  0.2350E+00  0.1266E+00  0.1266E+00  0.1266E+00  0.3115E-01  0.3115E-01  0.3452E-01  0.3385E-01  0.3587E-01
     18.569  0.2786E+00  0.9513E-01  0.9512E-01  0.9513E-01  0.4974E-01  0.4973E-01  0.5138E-01  0.5105E-01  0.5204E-01
     18.724  0.8396E-01  0.2951E-01  0.2951E-01  0.2951E-01  0.9240E-02  0.9241E-02  0.1432E-01  0.1330E-01  0.1635E-01
     18.879  0.3258E+00  0.8179E-01  0.8179E-01  0.8179E-01  0.3090E-01  0.3090E-01  0.6037E-01  0.5448E-01  0.7217E-01
     19.034  0.2919E-01  0.3932E-02  0.3935E-02  0.3932E-02  0.3049E-02  0.3051E-02  0.4430E-02  0.4156E-02  0.4979E-02
     19.189  0.1830E+00  0.3586E-02  0.3585E-02  0.3586E-02  0.1457E-01  0.1457E-01  0.5462E-02  0.7283E-02  0.1821E-02
     19.344  0.4824E-03  0.9451E-05  0.9451E-05  0.9451E-05  0.3839E-04  0.3839E-04  0.1440E-04  0.1920E-04  0.4799E-05
     19.499  0.7296E-13  0.9303E-04  0.9318E-04  0.9305E-04  0.1197E-04  0.1195E-04  0.2692E-04  0.2391E-04  0.3293E-04
     19.654  0.4728E-10  0.6021E-01  0.6021E-01  0.6021E-01  0.7740E-02  0.7739E-02  0.1741E-01  0.1548E-01  0.2128E-01
     19.809  0.4167E-11  0.5302E-02  0.5297E-02  0.5301E-02  0.6812E-03  0.6817E-03  0.1533E-02  0.1363E-02  0.1873E-02
     19.964  0.1027E-05  0.2901E-06  0.2896E-06  0.2902E-06  0.1261E-06  0.1259E-06  0.2836E-06  0.2517E-06  0.3470E-06
     20.119  0.4207E-01  0.1151E-01  0.1151E-01  0.1151E-01  0.4659E-02  0.4658E-02  0.9859E-02  0.8818E-02  0.1194E-01
     20.274  0.3113E+00  0.6478E-01  0.6478E-01  0.6478E-01  0.2203E-01  0.2203E-01  0.1647E-01  0.1759E-01  0.1425E-01
     20.429  0.3342E-02  0.4107E-03  0.4106E-03  0.4106E-03  0.3486E-03  0.3486E-03  0.1506E-03  0.1902E-03  0.7137E-04
     20.584  0.8273E-01  0.3669E-01  0.3667E-01  0.3669E-01  0.1145E-01  0.1145E-01  0.1572E-01  0.1486E-01  0.1743E-01
     20.739  0.2353E+00  0.1041E+00  0.1041E+00  0.1041E+00  0.3345E-01  0.3345E-01  0.4426E-01  0.4210E-01  0.4858E-01
     20.894  0.1554E+00  0.6233E-01  0.6232E-01  0.6233E-01  0.4524E-01  0.4524E-01  0.1762E-01  0.2315E-01  0.6576E-02
     21.049  0.7944E-03  0.3188E-03  0.3186E-03  0.3188E-03  0.2314E-03  0.2313E-03  0.9009E-04  0.1184E-03  0.3364E-04
     21.204  0.1512E-09  0.3907E-01  0.3908E-01  0.3907E-01  0.7365E-02  0.7365E-02  0.1657E-01  0.1473E-01  0.2025E-01
     21.359  0.1539E-02  0.8447E-01  0.8447E-01  0.8447E-01  0.1700E-01  0.1700E-01  0.3591E-01  0.3213E-01  0.4348E-01
     21.514  0.4624E-01  0.3207E-01  0.3207E-01  0.3207E-01  0.3860E-01  0.3860E-01  0.1636E-01  0.2081E-01  0.7462E-02
     21.669  0.2823E-03  0.1929E-03  0.1931E-03  0.1930E-03  0.2276E-03  0.2277E-03  0.9692E-04  0.1230E-03  0.4456E-04
     21.824  0.2009E+00  0.8959E-01  0.8959E-01  0.8959E-01  0.1840E-01  0.1839E-01  0.2594E-01  0.2443E-01  0.2897E-01
     21.979  0.1167E+00  0.7326E-01  0.7326E-01  0.7325E-01  0.1299E-01  0.1299E-01  0.2150E-01  0.1980E-01  0.2490E-01
     22.134  0.7166E-01  0.7682E-01  0.7682E-01  0.7682E-01  0.1575E-01  0.1575E-01  0.1262E-01  0.1325E-01  0.1137E-01
     22.289  0.6314E-02  0.2535E-02  0.2532E-02  0.2534E-02  0.1180E-02  0.1180E-02  0.6452E-03  0.7518E-03  0.4305E-03
     22.444  0.6287E-04  0.8756E-04  0.8751E-04  0.8756E-04  0.3583E-04  0.3582E-04  0.2825E-04  0.2978E-04  0.2524E-04
     22.599  0.1213E+00  0.1688E+00  0.1688E+00  0.1688E+00  0.6909E-01  0.6908E-01  0.5452E-01  0.5743E-01  0.4869E-01
     22.754  0.2049E-01  0.5172E-01  0.5172E-01  0.5172E-01  0.1167E-01  0.1167E-01  0.9216E-02  0.9705E-02  0.8230E-02
     22.909  0.1682E-07  0.1057E-01  0.1057E-01  0.1057E-01  0.1829E-07  0.1829E-07  0.9601E-08  0.1134E-07  0.6140E-08
     23.064  0.1317E-01  0.2303E-01  0.2302E-01  0.2303E-01  0.1623E-01  0.1623E-01  0.7971E-02  0.9625E-02  0.4672E-02
     23.219  0.3796E-01  0.8097E-01  0.8098E-01  0.8097E-01  0.5949E-01  0.5949E-01  0.2758E-01  0.3396E-01  0.1481E-01