    1    1    1    1
  0.1509714E+02  0.2774192E-09  0.2774192E-09  0.2774192E-09  0.5000000E-15
   1.0000000000000000E-004
  CAR 
 unknown system                          
     10    260     12
 
  0.1262379E-14  0.1262379E-14  0.1262379E-14  0.1953125E-02
    1        1.150234   1.000000
    2        7.520968   1.000000
    3        7.520971   1.000000
    4        7.520984   1.000000
    5        9.667060   1.000000
    6        9.667061   1.000000
    7       25.949799   0.000000
    8       30.929679   0.000000
    9       30.929686   0.000000
   10       30.929708   0.000000
   11       36.272105   0.000000
   12       43.427702   0.000000
 
  0.1250000E+00  0.1248751E-14  0.1262379E-14  0.3906250E-02
    1        1.760120   1.000000
    2        7.280631   1.000000
    3        7.739277   1.000000
    4        7.739287   1.000000
    5        9.566984   1.000000
    6        9.566992   1.000000
    7       26.837887   0.000000
    8       28.472324   0.000000
    9       31.867423   0.000000
   10       31.867434   0.000000
   11       37.583389   0.000000
   12       40.437971   0.000000
 
  0.1262379E-14  0.1250000E+00  0.1262379E-14  0.3906250E-02
    1        1.760120   1.000000
    2        7.280634   1.000000
    3        7.739275   1.000000
    4        7.739287   1.000000
    5        9.566983   1.000000
    6        9.566992   1.000000
    7       26.837889   0.000000
    8       28.472329   0.000000
    9       31.867417   0.000000
   10       31.867432   0.000000
   11       37.583392   0.000000
   12       40.438347   0.000000
 
  0.1269818E-14  0.1249001E-14  0.1250000E+00  0.3906250E-02
    1        1.760120   1.000000
    2        7.280633   1.000000
    3        7.739275   1.000000
    4        7.739288   1.000000
    5        9.566983   1.000000
    6        9.566992   1.000000
    7       26.837888   0.000000
    8       28.472327   0.000000
    9       31.867419   0.000000
   10       31.867434   0.000000
   11       37.583391   0.000000
   12       40.439499   0.000000
 
  0.1250000E+00  0.1250000E+00  0.1250000E+00  0.3906250E-02
    1        1.760118   1.000000
    2        7.280647   1.000000
    3        7.739273   1.000000
    4        7.739277   1.000000
    5        9.566995   1.000000
    6        9.566996   1.000000
    7       26.837887   0.000000
    8       28.472344   0.000000
    9       31.867404   0.000000
   10       31.867411   0.000000
   11       37.583418   0.000000
   12       40.438266   0.000000
 
  0.2500000E+00  0.1241812E-14  0.1262379E-14  0.3906250E-02
    1        3.189428   1.000000
    2        7.180793   1.000000
    3        7.893041   1.000000
    4        7.893045   1.000000
    5        9.841360   1.000000
    6        9.841369   1.000000
    7       24.633027   0.000000
    8       27.682936   0.000000
    9       33.973290   0.000000
   10       33.973315   0.000000
   11       34.843195   0.000000
   12       36.263953   0.000000
 
  0.1262379E-14  0.2500000E+00  0.1262379E-14  0.3906250E-02
    1        3.189429   1.000000
    2        7.180794   1.000000
    3        7.893042   1.000000
    4        7.893044   1.000000
    5        9.841359   1.000000
    6        9.841367   1.000000
    7       24.633034   0.000000
    8       27.682938   0.000000
    9       33.973287   0.000000
   10       33.973309   0.000000
   11       34.843196   0.000000
   12       36.263936   0.000000
 
  0.1290634E-14  0.1193490E-14  0.2500000E+00  0.3906250E-02
    1        3.189429   1.000000
    2        7.180793   1.000000
    3        7.893041   1.000000
    4        7.893045   1.000000
    5        9.841359   1.000000
    6        9.841368   1.000000
    7       24.633031   0.000000
    8       27.682937   0.000000
    9       33.973289   0.000000
   10       33.973312   0.000000
   11       34.843195   0.000000
   12       36.263950   0.000000
 
  0.2500000E+00  0.2500000E+00  0.2500000E+00  0.3906250E-02
    1        3.189420   1.000000
    2        7.180789   1.000000
    3        7.893023   1.000000
    4        7.893027   1.000000
    5        9.841362   1.000000
    6        9.841363   1.000000
    7       24.633052   0.000000
    8       27.682943   0.000000
    9       33.973251   0.000000
   10       33.973257   0.000000
   11       34.843216   0.000000
   12       36.263928   0.000000
 
  0.3750000E+00  0.1283445E-14  0.1262379E-14  0.3906250E-02
    1        3.970540   1.000000
    2        7.615740   1.000000
    3        7.615743   1.000000
    4        8.852897   1.000000
    5       10.793333   1.000000
    6       10.793346   1.000000
    7       20.109965   0.000000
    8       26.219693   0.000000
    9       31.726980   0.000000
   10       31.727043   0.000000
   11       37.727691   0.000000
   12       37.975538   0.000000
 
  0.1262379E-14  0.3750000E+00  0.1262379E-14  0.3906250E-02
    1        3.970541   1.000000
    2        7.615741   1.000000
    3        7.615742   1.000000
    4        8.852899   1.000000
    5       10.793332   1.000000
    6       10.793346   1.000000
    7       20.109971   0.000000
    8       26.219691   0.000000
    9       31.726977   0.000000
   10       31.727037   0.000000
   11       37.728087   0.000000
   12       37.975528   0.000000
 
  0.1304512E-14  0.1221245E-14  0.3750000E+00  0.3906250E-02
    1        3.970540   1.000000
    2        7.615740   1.000000
    3        7.615743   1.000000
    4        8.852899   1.000000
    5       10.793332   1.000000
    6       10.793346   1.000000
    7       20.109968   0.000000
    8       26.219691   0.000000
    9       31.726979   0.000000
   10       31.727039   0.000000
   11       37.727873   0.000000
   12       37.975503   0.000000
 
  0.3750000E+00  0.3750000E+00  0.3750000E+00  0.3906250E-02
    1        3.970525   1.000000
    2        7.615725   1.000000
    3        7.615729   1.000000
    4        8.852893   1.000000
    5       10.793339   1.000000
    6       10.793341   1.000000
    7       20.110010   0.000000
    8       26.219703   0.000000
    9       31.726918   0.000000
   10       31.726924   0.000000
   11       37.728077   0.000000
   12       37.975406   0.000000
 
  0.5000000E+00  0.1241812E-14  0.1262379E-14  0.1953125E-02
    1        4.013818   1.000000
    2        7.460234   1.000000
    3        7.460247   1.000000
    4       10.878535   1.000000
    5       11.325605   0.093876
    6       11.325633   0.093744
    7       17.156917   0.000000
    8       25.526633   0.000000
    9       30.309033   0.000000
   10       30.309117   0.000000
   11       39.710607   0.000000
   12       39.710720   0.000000
 
  0.1262379E-14  0.5000000E+00  0.1262379E-14  0.1953125E-02
    1        4.013819   1.000000
    2        7.460235   1.000000
    3        7.460245   1.000000
    4       10.878538   1.000000
    5       11.325605   0.093875
    6       11.325634   0.093736
    7       17.156923   0.000000
    8       25.526630   0.000000
    9       30.309029   0.000000
   10       30.309110   0.000000
   11       39.710603   0.000000
   12       39.710715   0.000000
 
  0.1276756E-14  0.1276756E-14  0.5000000E+00  0.1953125E-02
    1        4.013819   1.000000
    2        7.460235   1.000000
    3        7.460246   1.000000
    4       10.878537   1.000000
    5       11.325605   0.093874
    6       11.325633   0.093740
    7       17.156921   0.000000
    8       25.526631   0.000000
    9       30.309032   0.000000
   10       30.309112   0.000000
   11       39.710605   0.000000
   12       39.710717   0.000000
 
  0.5000000E+00  0.5000000E+00  0.5000000E+00  0.1953125E-02
    1        4.013807   1.000000
    2        7.460214   1.000000
    3        7.460218   1.000000
    4       10.878508   1.000000
    5       11.325632   0.093747
    6       11.325634   0.093736
    7       17.156989   0.000000
    8       25.526643   0.000000
    9       30.308962   0.000000
   10       30.308967   0.000000
   11       39.710502   0.000000
   12       39.710505   0.000000
 
  0.1250000E+00  0.1250000E+00  0.1262379E-14  0.3906250E-02
    1        1.967999   1.000000
    2        7.008553   1.000000
    3        7.949170   1.000000
    4        7.949180   1.000000
    5        9.103367   1.000000
    6        9.881858   1.000000
    7       27.212308   0.000000
    8       29.472478   0.000000
    9       30.908179   0.000000
   10       30.908193   0.000000
   11       39.082263   0.000000
   12       39.082377   0.000000
 
  0.1269818E-14  0.1250000E+00  0.1250000E+00  0.3906250E-02
    1        1.967999   1.000000
    2        7.008553   1.000000
    3        7.949172   1.000000
    4        7.949179   1.000000
    5        9.103367   1.000000
    6        9.881858   1.000000
    7       27.212308   0.000000
    8       29.472477   0.000000
    9       30.908183   0.000000
   10       30.908190   0.000000
   11       39.082264   0.000000
   12       39.082307   0.000000
 
  0.1250000E+00  0.1235123E-14  0.1250000E+00  0.3906250E-02
    1        1.967999   1.000000
    2        7.008553   1.000000
    3        7.949170   1.000000
    4        7.949181   1.000000
    5        9.103367   1.000000
    6        9.881858   1.000000
    7       27.212308   0.000000
    8       29.472478   0.000000
    9       30.908176   0.000000
   10       30.908196   0.000000
   11       39.082254   0.000000
   12       39.082312   0.000000
 
  0.2500000E+00  0.1250000E+00  0.1262379E-14  0.3906250E-02
    1        3.191455   1.000000
    2        6.603638   1.000000
    3        8.018838   1.000000
    4        8.308425   1.000000
    5        9.230067   1.000000
    6       10.205402   1.000000
    7       26.453736   0.000000
    8       28.485541   0.000000
    9       30.811906   0.000000
   10       31.897202   0.000000
   11       35.674129   0.000000
   12       37.207335   0.000000
 
  0.1269818E-14  0.2500000E+00  0.1250000E+00  0.3906250E-02
    1        3.191456   1.000000
    2        6.603638   1.000000
    3        8.018839   1.000000
    4        8.308426   1.000000
    5        9.230065   1.000000
    6       10.205401   1.000000
    7       26.453742   0.000000
    8       28.485542   0.000000
    9       30.811903   0.000000
   10       31.897203   0.000000
   11       35.674126   0.000000
   12       37.207335   0.000000
 
  0.1250000E+00  0.1179612E-14  0.2500000E+00  0.3906250E-02
    1        3.191455   1.000000
    2        6.603638   1.000000
    3        8.018837   1.000000
    4        8.308428   1.000000
    5        9.230065   1.000000
    6       10.205402   1.000000
    7       26.453739   0.000000
    8       28.485543   0.000000
    9       30.811909   0.000000
   10       31.897200   0.000000
   11       35.674126   0.000000
   12       37.207339   0.000000
 
  0.1250000E+00  0.1250000E+00 -0.1250000E+00  0.3906250E-02
    1        3.191458   1.000000
    2        6.603627   1.000000
    3        8.018841   1.000000
    4        8.308427   1.000000
    5        9.230079   1.000000
    6       10.205401   1.000000
    7       26.453752   0.000000
    8       28.485530   0.000000
    9       30.811914   0.000000
   10       31.897204   0.000000
   11       35.674155   0.000000
   12       37.207319   0.000000
 
  0.2500000E+00  0.1250000E+00  0.2500000E+00  0.3906250E-02
    1        3.191451   1.000000
    2        6.603629   1.000000
    3        8.018832   1.000000
    4        8.308407   1.000000
    5        9.230070   1.000000
    6       10.205396   1.000000
    7       26.453756   0.000000
    8       28.485533   0.000000
    9       30.811873   0.000000
   10       31.897218   0.000000
   11       35.674141   0.000000
   12       37.207301   0.000000
 
  0.1250000E+00  0.2500000E+00  0.1262379E-14  0.3906250E-02
    1        3.191456   1.000000
    2        6.603639   1.000000
    3        8.018838   1.000000
    4        8.308427   1.000000
    5        9.230064   1.000000
    6       10.205401   1.000000
    7       26.453741   0.000000
    8       28.485543   0.000000
    9       30.811906   0.000000
   10       31.897202   0.000000
   11       35.674126   0.000000
   12       37.207337   0.000000
 
  0.1250000E+00 -0.1250000E+00 -0.1250000E+00  0.3906250E-02
    1        3.191457   1.000000
    2        6.603627   1.000000
    3        8.018840   1.000000
    4        8.308428   1.000000
    5        9.230080   1.000000
    6       10.205402   1.000000
    7       26.453749   0.000000
    8       28.485529   0.000000
    9       30.811918   0.000000
   10       31.897202   0.000000
   11       35.674155   0.000000
   12       37.207321   0.000000
 
  0.2500000E+00  0.2500000E+00  0.1250000E+00  0.3906250E-02
    1        3.191451   1.000000
    2        6.603630   1.000000
    3        8.018832   1.000000
    4        8.308408   1.000000
    5        9.230069   1.000000
    6       10.205396   1.000000
    7       26.453755   0.000000
    8       28.485534   0.000000
    9       30.811875   0.000000
   10       31.897218   0.000000
   11       35.674141   0.000000
   12       37.207303   0.000000
 
  0.1290634E-14  0.1250000E+00  0.2500000E+00  0.3906250E-02
    1        3.191455   1.000000
    2        6.603638   1.000000
    3        8.018839   1.000000
    4        8.308425   1.000000
    5        9.230066   1.000000
    6       10.205402   1.000000
    7       26.453739   0.000000
    8       28.485542   0.000000
    9       30.811903   0.000000
   10       31.897203   0.000000
   11       35.674128   0.000000
   12       37.207334   0.000000
 
 -0.1250000E+00  0.1250000E+00 -0.1250000E+00  0.3906250E-02
    1        3.191458   1.000000
    2        6.603627   1.000000
    3        8.018842   1.000000
    4        8.308427   1.000000
    5        9.230079   1.000000
    6       10.205401   1.000000
    7       26.453755   0.000000
    8       28.485530   0.000000
    9       30.811912   0.000000
   10       31.897204   0.000000
   11       35.674155   0.000000
   12       37.207318   0.000000
 
  0.1250000E+00  0.2500000E+00  0.2500000E+00  0.3906250E-02
    1        3.191451   1.000000
    2        6.603629   1.000000
    3        8.018831   1.000000
    4        8.308410   1.000000
    5        9.230069   1.000000
    6       10.205396   1.000000
    7       26.453755   0.000000
    8       28.485534   0.000000
    9       30.811879   0.000000
   10       31.897215   0.000000
   11       35.674139   0.000000
   12       37.207306   0.000000
 
  0.2500000E+00  0.1228184E-14  0.1250000E+00  0.3906250E-02
    1        3.191455   1.000000
    2        6.603638   1.000000
    3        8.018837   1.000000
    4        8.308427   1.000000
    5        9.230066   1.000000
    6       10.205402   1.000000
    7       26.453736   0.000000
    8       28.485542   0.000000
    9       30.811909   0.000000
   10       31.897201   0.000000
   11       35.674127   0.000000
   12       37.207338   0.000000
 
  0.3750000E+00  0.1250000E+00  0.1262379E-14  0.3906250E-02
    1        4.330708   1.000000
    2        7.151694   1.000000
    3        7.451685   1.000000
    4        8.165876   1.000000
    5       10.885308   1.000000
    6       10.988998   1.000000
    7       21.818936   0.000000
    8       27.360772   0.000000
    9       29.890636   0.000000
   10       31.600905   0.000000
   11       37.300684   0.000000
   12       37.483055   0.000000
 
  0.1269818E-14  0.3750000E+00  0.1250000E+00  0.3906250E-02
    1        4.330709   1.000000
    2        7.151694   1.000000
    3        7.451685   1.000000
    4        8.165876   1.000000
    5       10.885309   1.000000
    6       10.988998   1.000000
    7       21.818943   0.000000
    8       27.360770   0.000000
    9       29.890632   0.000000
   10       31.600903   0.000000
   11       37.300683   0.000000
   12       37.483054   0.000000
 
  0.1250000E+00  0.1137979E-14  0.3750000E+00  0.3906250E-02
    1        4.330708   1.000000
    2        7.151694   1.000000
    3        7.451683   1.000000
    4        8.165878   1.000000
    5       10.885308   1.000000
    6       10.988998   1.000000
    7       21.818939   0.000000
    8       27.360770   0.000000
    9       29.890638   0.000000
   10       31.600903   0.000000
   11       37.300687   0.000000
   12       37.483051   0.000000
 
  0.1250000E+00  0.1250000E+00 -0.2500000E+00  0.3906250E-02
    1        4.330710   1.000000
    2        7.151686   1.000000
    3        7.451685   1.000000
    4        8.165877   1.000000
    5       10.885309   1.000000
    6       10.988987   1.000000
    7       21.818955   0.000000
    8       27.360755   0.000000
    9       29.890677   0.000000
   10       31.600968   0.000000
   11       37.300720   0.000000
   12       37.483031   0.000000
 
  0.3750000E+00  0.2500000E+00  0.3750000E+00  0.3906250E-02
    1        4.330696   1.000000
    2        7.151685   1.000000
    3        7.451677   1.000000
    4        8.165861   1.000000
    5       10.885317   1.000000
    6       10.988997   1.000000
    7       21.818975   0.000000
    8       27.360764   0.000000
    9       29.890569   0.000000
   10       31.600911   0.000000
   11       37.300605   0.000000
   12       37.483041   0.000000
 
  0.1250000E+00  0.3750000E+00  0.1262379E-14  0.3906250E-02
    1        4.330709   1.000000
    2        7.151694   1.000000
    3        7.451684   1.000000
    4        8.165877   1.000000
    5       10.885308   1.000000
    6       10.988998   1.000000
    7       21.818942   0.000000
    8       27.360770   0.000000
    9       29.890634   0.000000
   10       31.600903   0.000000
   11       37.300685   0.000000
   12       37.483051   0.000000
 
  0.2500000E+00 -0.1250000E+00 -0.1250000E+00  0.3906250E-02
    1        4.330709   1.000000
    2        7.151685   1.000000
    3        7.451685   1.000000
    4        8.165878   1.000000
    5       10.885309   1.000000
    6       10.988987   1.000000
    7       21.818951   0.000000
    8       27.360756   0.000000
    9       29.890681   0.000000
   10       31.600968   0.000000
   11       37.300721   0.000000
   12       37.483029   0.000000
 
  0.3750000E+00  0.3750000E+00  0.2500000E+00  0.3906250E-02
    1        4.330696   1.000000
    2        7.151685   1.000000
    3        7.451677   1.000000
    4        8.165862   1.000000
    5       10.885316   1.000000
    6       10.988997   1.000000
    7       21.818974   0.000000
    8       27.360764   0.000000
    9       29.890570   0.000000
   10       31.600911   0.000000
   11       37.300606   0.000000
   12       37.483039   0.000000
 
  0.1304512E-14  0.1250000E+00  0.3750000E+00  0.3906250E-02
    1        4.330709   1.000000
    2        7.151694   1.000000
    3        7.451685   1.000000
    4        8.165875   1.000000
    5       10.885309   1.000000
    6       10.988997   1.000000
    7       21.818940   0.000000
    8       27.360771   0.000000
    9       29.890633   0.000000
   10       31.600904   0.000000
   11       37.300683   0.000000
   12       37.483056   0.000000
 
 -0.1250000E+00  0.2500000E+00 -0.1250000E+00  0.3906250E-02
    1        4.330710   1.000000
    2        7.151686   1.000000
    3        7.451685   1.000000
    4        8.165877   1.000000
    5       10.885309   1.000000
    6       10.988987   1.000000
    7       21.818958   0.000000
    8       27.360754   0.000000
    9       29.890675   0.000000
   10       31.600967   0.000000
   11       37.300718   0.000000
   12       37.483031   0.000000
 
  0.2500000E+00  0.3750000E+00  0.3750000E+00  0.3906250E-02
    1        4.330696   1.000000
    2        7.151685   1.000000
    3        7.451675   1.000000
    4        8.165864   1.000000
    5       10.885316   1.000000
    6       10.988998   1.000000
    7       21.818974   0.000000
    8       27.360763   0.000000
    9       29.890573   0.000000
   10       31.600909   0.000000
   11       37.300610   0.000000
   12       37.483037   0.000000
 
  0.3750000E+00  0.1207368E-14  0.1250000E+00  0.3906250E-02
    1        4.330708   1.000000
    2        7.151694   1.000000
    3        7.451684   1.000000
    4        8.165877   1.000000
    5       10.885308   1.000000
    6       10.988998   1.000000
    7       21.818936   0.000000
    8       27.360771   0.000000
    9       29.890639   0.000000
   10       31.600904   0.000000
   11       37.300687   0.000000
   12       37.483055   0.000000
 
  0.5000000E+00  0.1250000E+00  0.1262379E-14  0.3906250E-02
    1        4.480806   1.000000
    2        7.096032   1.000000
    3        7.898434   1.000000
    4        8.766470   1.000000
    5       11.360179   0.010862
    6       13.269016   0.000000
    7       17.482243   0.000000
    8       26.325735   0.000000
    9       29.396309   0.000000
   10       29.445085   0.000000
   11       38.827122   0.000000
   12       39.795053   0.000000
 
  0.1269818E-14  0.5000000E+00  0.1250000E+00  0.3906250E-02
    1        4.480806   1.000000
    2        7.096030   1.000000
    3        7.898434   1.000000
    4        8.766472   1.000000
    5       11.360180   0.010861
    6       13.269018   0.000000
    7       17.482249   0.000000
    8       26.325731   0.000000
    9       29.396304   0.000000
   10       29.445081   0.000000
   11       38.827119   0.000000
   12       39.795049   0.000000
 
  0.1250000E+00  0.1193490E-14  0.5000000E+00  0.3906250E-02
    1        4.480806   1.000000
    2        7.096029   1.000000
    3        7.898436   1.000000
    4        8.766471   1.000000
    5       11.360181   0.010860
    6       13.269017   0.000000
    7       17.482246   0.000000
    8       26.325731   0.000000
    9       29.396304   0.000000
   10       29.445086   0.000000
   11       38.827122   0.000000
   12       39.795052   0.000000
 
  0.1250000E+00  0.1250000E+00 -0.3750000E+00  0.3906250E-02
    1        4.480803   1.000000
    2        7.096029   1.000000
    3        7.898434   1.000000
    4        8.766478   1.000000
    5       11.360164   0.010874
    6       13.269020   0.000000
    7       17.482256   0.000000
    8       26.325729   0.000000
    9       29.396296   0.000000
   10       29.445139   0.000000
   11       38.827206   0.000000
   12       39.794944   0.000000
 
  0.5000000E+00  0.3750000E+00  0.5000000E+00  0.3906250E-02
    1        4.480793   1.000000
    2        7.096025   1.000000
    3        7.898421   1.000000
    4        8.766457   1.000000
    5       11.360181   0.010860
    6       13.269024   0.000000
    7       17.482309   0.000000
    8       26.325728   0.000000
    9       29.396235   0.000000
   10       29.445001   0.000000
   11       38.826999   0.000000
   12       39.794855   0.000000
 
  0.1250000E+00  0.5000000E+00  0.1262379E-14  0.3906250E-02
    1        4.480806   1.000000
    2        7.096030   1.000000
    3        7.898435   1.000000
    4        8.766471   1.000000
    5       11.360181   0.010860
    6       13.269017   0.000000
    7       17.482248   0.000000
    8       26.325730   0.000000
    9       29.396303   0.000000
   10       29.445082   0.000000
   11       38.827120   0.000000
   12       39.795050   0.000000
 
  0.3750000E+00 -0.1250000E+00 -0.1250000E+00  0.3906250E-02
    1        4.480803   1.000000
    2        7.096029   1.000000
    3        7.898435   1.000000
    4        8.766477   1.000000
    5       11.360164   0.010874
    6       13.269019   0.000000
    7       17.482253   0.000000
    8       26.325730   0.000000
    9       29.396297   0.000000
   10       29.445144   0.000000
   11       38.827209   0.000000
   12       39.794947   0.000000
 
  0.5000000E+00  0.5000000E+00  0.3750000E+00  0.3906250E-02
    1        4.480793   1.000000
    2        7.096024   1.000000
    3        7.898422   1.000000
    4        8.766457   1.000000
    5       11.360182   0.010859
    6       13.269024   0.000000
    7       17.482309   0.000000
    8       26.325728   0.000000
    9       29.396234   0.000000
   10       29.445001   0.000000
   11       38.827000   0.000000
   12       39.794856   0.000000
 
  0.1276756E-14  0.1250000E+00  0.5000000E+00  0.3906250E-02
    1        4.480806   1.000000
    2        7.096031   1.000000
    3        7.898433   1.000000
    4        8.766471   1.000000
    5       11.360179   0.010862
    6       13.269017   0.000000
    7       17.482247   0.000000
    8       26.325733   0.000000
    9       29.396307   0.000000
   10       29.445082   0.000000
   11       38.827120   0.000000
   12       39.795052   0.000000
 
 -0.1250000E+00  0.3750000E+00 -0.1250000E+00  0.3906250E-02
    1        4.480804   1.000000
    2        7.096029   1.000000
    3        7.898433   1.000000
    4        8.766479   1.000000
    5       11.360164   0.010874
    6       13.269021   0.000000
    7       17.482259   0.000000
    8       26.325728   0.000000
    9       29.396294   0.000000
   10       29.445137   0.000000
   11       38.827204   0.000000
   12       39.794941   0.000000
 
  0.3750000E+00  0.5000000E+00  0.5000000E+00  0.3906250E-02
    1        4.480793   1.000000
    2        7.096022   1.000000
    3        7.898423   1.000000
    4        8.766457   1.000000
    5       11.360183   0.010858
    6       13.269024   0.000000
    7       17.482308   0.000000
    8       26.325726   0.000000
    9       29.396232   0.000000
   10       29.445004   0.000000
   11       38.827002   0.000000
   12       39.794857   0.000000
 
  0.5000000E+00  0.1124101E-14  0.1250000E+00  0.3906250E-02
    1        4.480806   1.000000
    2        7.096030   1.000000
    3        7.898435   1.000000
    4        8.766470   1.000000
    5       11.360179   0.010861
    6       13.269016   0.000000
    7       17.482243   0.000000
    8       26.325733   0.000000
    9       29.396307   0.000000
   10       29.445088   0.000000
   11       38.827123   0.000000
   12       39.795053   0.000000
 
 -0.3750000E+00  0.1250000E+00  0.1262379E-14  0.3906250E-02
    1        4.514119   1.000000
    2        7.212660   1.000000
    3        7.889484   1.000000
    4        8.529286   1.000000
    5       10.647561   1.000000
    6       12.829323   0.000000
    7       18.830301   0.000000
    8       26.457421   0.000000
    9       28.539827   0.000000
   10       31.376045   0.000000
   11       36.976726   0.000000
   12       39.494112   0.000000
 
  0.1269818E-14 -0.3750000E+00  0.1250000E+00  0.3906250E-02
    1        4.514120   1.000000
    2        7.212659   1.000000
    3        7.889483   1.000000
    4        8.529288   1.000000
    5       10.647561   1.000000
    6       12.829325   0.000000
    7       18.830307   0.000000
    8       26.457417   0.000000
    9       28.539822   0.000000
   10       31.376042   0.000000
   11       36.976727   0.000000
   12       39.494108   0.000000
 
  0.1250000E+00  0.1304512E-14 -0.3750000E+00  0.3906250E-02
    1        4.514119   1.000000
    2        7.212657   1.000000
    3        7.889486   1.000000
    4        8.529287   1.000000
    5       10.647563   1.000000
    6       12.829321   0.000000
    7       18.830305   0.000000
    8       26.457417   0.000000
    9       28.539823   0.000000
   10       31.376047   0.000000
   11       36.976729   0.000000
   12       39.494111   0.000000
 
  0.1250000E+00  0.1250000E+00  0.5000000E+00  0.3906250E-02
    1        4.514114   1.000000
    2        7.212655   1.000000
    3        7.889483   1.000000
    4        8.529283   1.000000
    5       10.647550   1.000000
    6       12.829367   0.000000
    7       18.830273   0.000000
    8       26.457422   0.000000
    9       28.539779   0.000000
   10       31.376079   0.000000
   11       36.976684   0.000000
   12       39.494199   0.000000
 
 -0.3750000E+00  0.5000000E+00 -0.3750000E+00  0.3906250E-02
    1        4.514105   1.000000
    2        7.212651   1.000000
    3        7.889471   1.000000
    4        8.529271   1.000000
    5       10.647558   1.000000
    6       12.829356   0.000000
    7       18.830340   0.000000
    8       26.457412   0.000000
    9       28.539732   0.000000
   10       31.375979   0.000000
   11       36.976654   0.000000
   12       39.493985   0.000000
 
  0.1250000E+00 -0.3750000E+00  0.1262379E-14  0.3906250E-02
    1        4.514120   1.000000
    2        7.212658   1.000000
    3        7.889485   1.000000
    4        8.529288   1.000000
    5       10.647563   1.000000
    6       12.829322   0.000000
    7       18.830308   0.000000
    8       26.457416   0.000000
    9       28.539821   0.000000
   10       31.376044   0.000000
   11       36.976729   0.000000
   12       39.494107   0.000000
 
  0.5000000E+00 -0.1250000E+00 -0.1250000E+00  0.3906250E-02
    1        4.514114   1.000000
    2        7.212655   1.000000
    3        7.889485   1.000000
    4        8.529282   1.000000
    5       10.647550   1.000000
    6       12.829366   0.000000
    7       18.830270   0.000000
    8       26.457422   0.000000
    9       28.539781   0.000000
   10       31.376082   0.000000
   11       36.976683   0.000000
   12       39.494201   0.000000
 
 -0.3750000E+00 -0.3750000E+00  0.5000000E+00  0.3906250E-02
    1        4.514105   1.000000
    2        7.212650   1.000000
    3        7.889472   1.000000
    4        8.529272   1.000000
    5       10.647558   1.000000
    6       12.829354   0.000000
    7       18.830340   0.000000
    8       26.457412   0.000000
    9       28.539731   0.000000
   10       31.375979   0.000000
   11       36.976656   0.000000
   12       39.493984   0.000000
 
  0.1221245E-14  0.1250000E+00 -0.3750000E+00  0.3906250E-02
    1        4.514120   1.000000
    2        7.212660   1.000000
    3        7.889483   1.000000
    4        8.529287   1.000000
    5       10.647561   1.000000
    6       12.829325   0.000000
    7       18.830304   0.000000
    8       26.457419   0.000000
    9       28.539825   0.000000
   10       31.376043   0.000000
   11       36.976726   0.000000