Automatically generated mesh
     260
Reciprocal lattice
    0.00000000000000    0.00000000000000    0.00000000000000             1
    0.12500000000000    0.00000000000000    0.00000000000000             2
    0.00000000000000    0.12500000000000    0.00000000000000             2
    0.00000000000000    0.00000000000000    0.12500000000000             2
    0.12500000000000    0.12500000000000    0.12500000000000             2
    0.25000000000000    0.00000000000000    0.00000000000000             2
    0.00000000000000    0.25000000000000    0.00000000000000             2
    0.00000000000000    0.00000000000000    0.25000000000000             2
    0.25000000000000    0.25000000000000    0.25000000000000             2
    0.37500000000000    0.00000000000000    0.00000000000000             2
    0.00000000000000    0.37500000000000    0.00000000000000             2
    0.00000000000000    0.00000000000000    0.37500000000000             2
    0.37500000000000    0.37500000000000    0.37500000000000             2
    0.50000000000000    0.00000000000000    0.00000000000000             1
    0.00000000000000    0.50000000000000    0.00000000000000             1
    0.00000000000000    0.00000000000000    0.50000000000000             1
    0.50000000000000    0.50000000000000    0.50000000000000             1
    0.12500000000000    0.12500000000000    0.00000000000000             2
    0.00000000000000    0.12500000000000    0.12500000000000             2
    0.12500000000000    0.00000000000000    0.12500000000000             2
    0.25000000000000    0.12500000000000    0.00000000000000             2
    0.00000000000000    0.25000000000000    0.12500000000000             2
    0.12500000000000    0.00000000000000    0.25000000000000             2
    0.12500000000000    0.12500000000000   -0.12500000000000             2
    0.25000000000000    0.12500000000000    0.25000000000000             2
    0.12500000000000    0.25000000000000    0.00000000000000             2
    0.12500000000000   -0.12500000000000   -0.12500000000000             2
    0.25000000000000    0.25000000000000    0.12500000000000             2
    0.00000000000000    0.12500000000000    0.25000000000000             2
   -0.12500000000000    0.12500000000000   -0.12500000000000             2
    0.12500000000000    0.25000000000000    0.25000000000000             2
    0.25000000000000    0.00000000000000    0.12500000000000             2
    0.37500000000000    0.12500000000000    0.00000000000000             2
    0.00000000000000    0.37500000000000    0.12500000000000             2
    0.12500000000000    0.00000000000000    0.37500000000000             2
    0.12500000000000    0.12500000000000   -0.25000000000000             2
    0.37500000000000    0.25000000000000    0.37500000000000             2
    0.12500000000000    0.37500000000000    0.00000000000000             2
    0.25000000000000   -0.12500000000000   -0.12500000000000             2
    0.37500000000000    0.37500000000000    0.25000000000000             2
    0.00000000000000    0.12500000000000    0.37500000000000             2
   -0.12500000000000    0.25000000000000   -0.12500000000000             2
    0.25000000000000    0.37500000000000    0.37500000000000             2
    0.37500000000000    0.00000000000000    0.12500000000000             2
    0.50000000000000    0.12500000000000    0.00000000000000             2
    0.00000000000000    0.50000000000000    0.12500000000000             2
    0.12500000000000    0.00000000000000    0.50000000000000             2
    0.12500000000000    0.12500000000000   -0.37500000000000             2
    0.50000000000000    0.37500000000000    0.50000000000000             2
    0.12500000000000    0.50000000000000    0.00000000000000             2
    0.37500000000000   -0.12500000000000   -0.12500000000000             2
    0.50000000000000    0.50000000000000    0.37500000000000             2
    0.00000000000000    0.12500000000000    0.50000000000000             2
   -0.12500000000000    0.37500000000000   -0.12500000000000             2
    0.37500000000000    0.50000000000000    0.50000000000000             2
    0.50000000000000    0.00000000000000    0.12500000000000             2
   -0.37500000000000    0.12500000000000    0.00000000000000             2
    0.00000000000000   -0.37500000000000    0.12500000000000             2
    0.12500000000000    0.00000000000000   -0.37500000000000             2
    0.12500000000000    0.12500000000000    0.50000000000000             2
   -0.37500000000000    0.50000000000000   -0.37500000000000             2
    0.12500000000000   -0.37500000000000    0.00000000000000             2
    0.50000000000000   -0.12500000000000   -0.12500000000000             2
   -0.37500000000000   -0.37500000000000    0.50000000000000             2
    0.00000000000000    0.12500000000000   -0.37500000000000             2
   -0.12500000000000    0.50000000000000   -0.12500000000000             2
    0.50000000000000   -0.37500000000000   -0.37500000000000             2
   -0.37500000000000    0.00000000000000    0.12500000000000             2
   -0.25000000000000    0.12500000000000    0.00000000000000             2
    0.00000000000000   -0.25000000000000    0.12500000000000             2
    0.12500000000000    0.00000000000000   -0.25000000000000             2
    0.12500000000000    0.12500000000000    0.37500000000000             2
   -0.25000000000000   -0.37500000000000   -0.25000000000000             2
    0.12500000000000   -0.25000000000000    0.00000000000000             2
   -0.37500000000000   -0.12500000000000   -0.12500000000000             2
   -0.25000000000000   -0.25000000000000   -0.37500000000000             2
    0.00000000000000    0.12500000000000   -0.25000000000000             2
   -0.12500000000000   -0.37500000000000   -0.12500000000000             2
   -0.37500000000000   -0.25000000000000   -0.25000000000000             2
   -0.25000000000000    0.00000000000000    0.12500000000000             2
   -0.12500000000000    0.12500000000000    0.00000000000000             2
    0.00000000000000   -0.12500000000000    0.12500000000000             2
    0.12500000000000    0.00000000000000   -0.12500000000000             2
    0.12500000000000    0.12500000000000    0.25000000000000             2
   -0.12500000000000   -0.25000000000000   -0.12500000000000             2
   -0.25000000000000   -0.12500000000000   -0.12500000000000             2
    0.25000000000000    0.25000000000000    0.00000000000000             2
    0.00000000000000    0.25000000000000    0.25000000000000             2
    0.25000000000000    0.00000000000000    0.25000000000000             2
    0.37500000000000    0.25000000000000    0.00000000000000             2
    0.00000000000000    0.37500000000000    0.25000000000000             2
    0.25000000000000    0.00000000000000    0.37500000000000             2
    0.25000000000000    0.25000000000000   -0.12500000000000             2
    0.37500000000000    0.12500000000000    0.37500000000000             2
    0.25000000000000    0.37500000000000    0.00000000000000             2
    0.12500000000000   -0.25000000000000   -0.25000000000000             2
    0.37500000000000    0.37500000000000    0.12500000000000             2
    0.00000000000000    0.25000000000000    0.37500000000000             2
   -0.25000000000000    0.12500000000000   -0.25000000000000             2
    0.12500000000000    0.37500000000000    0.37500000000000             2
    0.37500000000000    0.00000000000000    0.25000000000000             2
    0.50000000000000    0.25000000000000    0.00000000000000             2
    0.00000000000000    0.50000000000000    0.25000000000000             2
    0.25000000000000    0.00000000000000    0.50000000000000             2
    0.25000000000000    0.25000000000000   -0.25000000000000             2
    0.50000000000000    0.25000000000000    0.50000000000000             2
    0.25000000000000    0.50000000000000    0.00000000000000             2
    0.25000000000000   -0.25000000000000   -0.25000000000000             2
    0.50000000000000    0.50000000000000    0.25000000000000             2
    0.00000000000000    0.25000000000000    0.50000000000000             2
   -0.25000000000000    0.25000000000000   -0.25000000000000             2
    0.25000000000000    0.50000000000000    0.50000000000000             2
    0.50000000000000    0.00000000000000    0.25000000000000             2
   -0.37500000000000    0.25000000000000    0.00000000000000             2
    0.00000000000000   -0.37500000000000    0.25000000000000             2
    0.25000000000000    0.00000000000000   -0.37500000000000             2
    0.25000000000000    0.25000000000000   -0.37500000000000             2
   -0.37500000000000    0.37500000000000   -0.37500000000000             2
    0.25000000000000   -0.37500000000000    0.00000000000000             2
    0.37500000000000   -0.25000000000000   -0.25000000000000             2
   -0.37500000000000   -0.37500000000000    0.37500000000000             2
    0.00000000000000    0.25000000000000   -0.37500000000000             2
   -0.25000000000000    0.37500000000000   -0.25000000000000             2
    0.37500000000000   -0.37500000000000   -0.37500000000000             2
   -0.37500000000000    0.00000000000000    0.25000000000000             2
   -0.25000000000000    0.25000000000000    0.00000000000000             2
    0.00000000000000   -0.25000000000000    0.25000000000000             2
    0.25000000000000    0.00000000000000   -0.25000000000000             2
    0.25000000000000    0.25000000000000    0.50000000000000             2
   -0.25000000000000    0.50000000000000   -0.25000000000000             2
    0.50000000000000   -0.25000000000000   -0.25000000000000             2
    0.37500000000000    0.37500000000000    0.00000000000000             2
    0.00000000000000    0.37500000000000    0.37500000000000             2
    0.37500000000000    0.00000000000000    0.37500000000000             2
    0.50000000000000    0.37500000000000    0.00000000000000             2
    0.00000000000000    0.50000000000000    0.37500000000000             2
    0.37500000000000    0.00000000000000    0.50000000000000             2
    0.37500000000000    0.37500000000000   -0.12500000000000             2
    0.50000000000000    0.12500000000000    0.50000000000000             2
    0.37500000000000    0.50000000000000    0.00000000000000             2
    0.12500000000000   -0.37500000000000   -0.37500000000000             2
    0.50000000000000    0.50000000000000    0.12500000000000             2
    0.00000000000000    0.37500000000000    0.50000000000000             2
   -0.37500000000000    0.12500000000000   -0.37500000000000             2
    0.12500000000000    0.50000000000000    0.50000000000000             2
    0.50000000000000    0.00000000000000    0.37500000000000             2
   -0.37500000000000    0.37500000000000    0.00000000000000             2
    0.00000000000000   -0.37500000000000    0.37500000000000             2
    0.37500000000000    0.00000000000000   -0.37500000000000             2
    0.37500000000000    0.37500000000000   -0.25000000000000             2
   -0.37500000000000    0.25000000000000   -0.37500000000000             2
    0.25000000000000   -0.37500000000000   -0.37500000000000             2
    0.50000000000000    0.50000000000000    0.00000000000000             1
    0.00000000000000    0.50000000000000    0.50000000000000             1
    0.50000000000000    0.00000000000000    0.50000000000000             1
    0.37500000000000    0.25000000000000    0.12500000000000             2
    0.12500000000000    0.37500000000000    0.25000000000000             2
    0.25000000000000    0.12500000000000    0.37500000000000             2
    0.25000000000000    0.12500000000000   -0.12500000000000             2
    0.37500000000000    0.12500000000000    0.25000000000000             2
    0.12500000000000   -0.25000000000000   -0.12500000000000             2
    0.12500000000000    0.25000000000000   -0.12500000000000             2
    0.12500000000000   -0.12500000000000   -0.25000000000000             2
    0.25000000000000    0.37500000000000    0.12500000000000             2
   -0.12500000000000    0.12500000000000   -0.25000000000000             2
   -0.25000000000000    0.12500000000000   -0.12500000000000             2
    0.12500000000000    0.25000000000000    0.37500000000000             2
    0.50000000000000    0.25000000000000    0.12500000000000             2
    0.12500000000000    0.50000000000000    0.25000000000000             2
    0.25000000000000    0.12500000000000    0.50000000000000             2
    0.25000000000000    0.12500000000000   -0.25000000000000             2
    0.50000000000000    0.25000000000000    0.37500000000000             2
    0.12500000000000   -0.37500000000000   -0.12500000000000             2
    0.12500000000000    0.37500000000000   -0.12500000000000             2
    0.25000000000000   -0.12500000000000   -0.25000000000000             2
   -0.37500000000000   -0.25000000000000    0.50000000000000             2
    0.37500000000000    0.50000000000000    0.25000000000000             2
   -0.12500000000000    0.12500000000000   -0.37500000000000             2
   -0.25000000000000    0.25000000000000    0.12500000000000             2
   -0.12500000000000    0.12500000000000    0.37500000000000             2
   -0.25000000000000    0.25000000000000   -0.12500000000000             2
    0.50000000000000   -0.37500000000000   -0.25000000000000             2
    0.25000000000000    0.37500000000000    0.50000000000000             2
   -0.37500000000000   -0.12500000000000    0.12500000000000             2
    0.12500000000000   -0.25000000000000    0.25000000000000             2
    0.37500000000000   -0.12500000000000    0.12500000000000             2
   -0.12500000000000   -0.25000000000000    0.25000000000000             2
   -0.25000000000000    0.50000000000000   -0.37500000000000             2
    0.50000000000000   -0.12500000000000   -0.25000000000000             2
   -0.25000000000000    0.50000000000000   -0.12500000000000             2
   -0.12500000000000   -0.25000000000000    0.50000000000000             2
   -0.37500000000000    0.25000000000000    0.12500000000000             2
    0.12500000000000   -0.37500000000000    0.25000000000000             2
    0.25000000000000    0.12500000000000   -0.37500000000000             2
   -0.37500000000000    0.37500000000000    0.50000000000000             2
    0.12500000000000    0.50000000000000   -0.12500000000000             2
    0.37500000000000   -0.12500000000000   -0.25000000000000             2
    0.50000000000000   -0.37500000000000    0.37500000000000             2
   -0.12500000000000    0.12500000000000    0.50000000000000             2
   -0.25000000000000    0.37500000000000   -0.12500000000000             2
    0.37500000000000    0.50000000000000   -0.37500000000000             2
    0.50000000000000   -0.12500000000000    0.12500000000000             2
   -0.12500000000000   -0.25000000000000    0.37500000000000             2
    0.50000000000000    0.37500000000000    0.12500000000000             2
    0.12500000000000    0.50000000000000    0.37500000000000             2
    0.37500000000000    0.12500000000000    0.50000000000000             2
    0.37500000000000    0.25000000000000   -0.12500000000000             2
    0.50000000000000    0.12500000000000    0.37500000000000             2
    0.12500000000000   -0.37500000000000   -0.25000000000000             2
    0.25000000000000    0.37500000000000   -0.12500000000000             2
    0.12500000000000   -0.25000000000000   -0.37500000000000             2
    0.37500000000000    0.50000000000000    0.12500000000000             2
   -0.25000000000000    0.12500000000000   -0.37500000000000             2
   -0.37500000000000    0.12500000000000   -0.25000000000000             2
    0.12500000000000    0.37500000000000    0.50000000000000             2
   -0.37500000000000    0.37500000000000    0.12500000000000             2
    0.12500000000000   -0.37500000000000    0.37500000000000             2
    0.37500000000000    0.12500000000000   -0.37500000000000             2
    0.37500000000000    0.25000000000000   -0.25000000000000             2
   -0.37500000000000    0.25000000000000    0.50000000000000             2
    0.12500000000000    0.50000000000000   -0.25000000000000             2
    0.25000000000000    0.50000000000000   -0.12500000000000             2
    0.25000000000000   -0.25000000000000   -0.37500000000000             2
    0.50000000000000   -0.25000000000000    0.37500000000000             2
    0.50000000000000   -0.37500000000000    0.25000000000000             2
   -0.25000000000000    0.12500000000000    0.50000000000000             2
   -0.25000000000000    0.37500000000000    0.25000000000000             2
   -0.12500000000000    0.25000000000000    0.50000000000000             2
   -0.37500000000000    0.25000000000000   -0.25000000000000             2
    0.37500000000000    0.50000000000000   -0.25000000000000             2
    0.25000000000000    0.50000000000000   -0.37500000000000             2
    0.50000000000000   -0.25000000000000    0.12500000000000             2
    0.25000000000000   -0.25000000000000    0.37500000000000             2
    0.50000000000000   -0.12500000000000    0.25000000000000             2
   -0.25000000000000   -0.37500000000000    0.25000000000000             2
   -0.25000000000000    0.37500000000000    0.50000000000000             2
    0.37500000000000   -0.12500000000000   -0.37500000000000             2
   -0.37500000000000    0.37500000000000   -0.12500000000000             2
   -0.12500000000000   -0.37500000000000    0.37500000000000             2
   -0.25000000000000    0.37500000000000    0.12500000000000             2
    0.12500000000000   -0.25000000000000    0.37500000000000             2
    0.37500000000000    0.12500000000000   -0.25000000000000             2
    0.37500000000000    0.25000000000000   -0.37500000000000             2
   -0.25000000000000    0.37500000000000   -0.37500000000000             2
    0.12500000000000    0.37500000000000   -0.25000000000000             2
    0.37500000000000   -0.25000000000000   -0.37500000000000             2
    0.37500000000000   -0.37500000000000    0.25000000000000             2
   -0.25000000000000    0.12500000000000    0.37500000000000             2
   -0.37500000000000    0.37500000000000    0.25000000000000             2
    0.25000000000000    0.37500000000000   -0.37500000000000             2
    0.37500000000000   -0.25000000000000    0.12500000000000             2
   -0.37500000000000    0.50000000000000    0.12500000000000             2
    0.12500000000000   -0.37500000000000    0.50000000000000             2
    0.50000000000000    0.12500000000000   -0.37500000000000             2
    0.50000000000000    0.37500000000000   -0.12500000000000             2
   -0.37500000000000    0.12500000000000    0.50000000000000             2
    0.12500000000000    0.50000000000000   -0.37500000000000             2
   -0.25000000000000    0.50000000000000    0.25000000000000             2
    0.25000000000000   -0.25000000000000    0.50000000000000             2
    0.50000000000000    0.25000000000000   -0.25000000000000             2
