PROCAR lm decomposed
# of k-points:  260         # of bands:   12         # of ions:    1

 k-point     1 :    0.00000000 0.00000000 0.00000000     weight = 0.00195313

band     1 # energy    1.15023377 # occ.  2.00000000
 
ion      s     py     pz     px    dxy    dyz    dz2    dxz  x2-y2    tot
    1  0.814  0.000  0.000  0.000  0.000  0.000  0.000  0.000  0.000  0.814
 
band     2 # energy    7.52096822 # occ.  2.00000000
 
ion      s     py     pz     px    dxy    dyz    dz2    dxz  x2-y2    tot
    1  0.000  0.000  0.000  0.000  0.251  0.032  0.189  0.063  0.439  0.974
 
band     3 # energy    7.52097121 # occ.  2.00000000
 
ion      s     py     pz     px    dxy    dyz    dz2    dxz  x2-y2    tot
    1  0.000  0.000  0.000  0.000  0.009  0.086  0.280  0.172  0.428  0.974
 
band     4 # energy    7.52098396 # occ.  2.00000000
 
ion      s     py     pz     px    dxy    dyz    dz2    dxz  x2-y2    tot
    1  0.000  0.000  0.000  0.000  0.065  0.207  0.261  0.414  0.026  0.974
 
band     5 # energy    9.66706028 # occ.  2.00000000
 
ion      s     py     pz     px    dxy    dyz    dz2    dxz  x2-y2    tot
    1  0.000  0.000  0.000  0.000  0.001  0.654  0.000  0.327  0.000  0.982
 
band     6 # energy    9.66706083 # occ.  2.00000000
 
ion      s     py     pz     px    dxy    dyz    dz2    dxz  x2-y2    tot
    1  0.000  0.000  0.000  0.000  0.654  0.001  0.245  0.001  0.082  0.982
 
band     7 # energy   25.94979873 # occ.  0.00000000
 
ion      s     py     pz     px    dxy    dyz    dz2    dxz  x2-y2    tot
    1  0.000  0.000  0.000  0.000  0.000  0.000  0.000  0.000  0.000  0.000
 
band     8 # energy   30.92967949 # occ.  0.00000000
 
ion      s     py     pz     px    dxy    dyz    dz2    dxz  x2-y2    tot
    1  0.000  0.015  0.015  0.119  0.000  0.000  0.000  0.000  0.000  0.149
 
band     9 # energy   30.92968640 # occ.  0.00000000
 
ion      s     py     pz     px    dxy    dyz    dz2    dxz  x2-y2    tot
    1  0.000  0.107  0.040  0.002  0.000  0.000  0.000  0.000  0.000  0.149
 
band    10 # energy   30.92970798 # occ.  0.00000000
 
ion      s     py     pz     px    dxy    dyz    dz2    dxz  x2-y2    tot
    1  0.000  0.027  0.094  0.028  0.000  0.000  0.000  0.000  0.000  0.149
 
band    11 # energy   36.27210487 # occ.  0.00000000
 
ion      s     py     pz     px    dxy    dyz    dz2    dxz  x2-y2    tot
    1  0.066  0.000  0.000  0.000  0.000  0.000  0.000  0.000  0.000  0.066
 
band    12 # energy   43.42770155 # occ.  0.00000000
 
ion      s     py     pz     px    dxy    dyz    dz2    dxz  x2-y2    tot
    1  0.000  0.000  0.000  0.000  0.141  0.238  0.132  0.476  0.532  1.520
 

 k-point     2 :    0.12500000 0.00000000 0.00000000     weight = 0.00390625

band     1 # energy    1.76011962 # occ.  2.00000000
 
ion      s     py     pz     px    dxy    dyz    dz2    dxz  x2-y2    tot
    1  0.774  0.004  0.000  0.032  0.002  0.000  0.001  0.000  0.002  0.815
 
band     2 # energy    7.28063115 # occ.  2.00000000
 
ion      s     py     pz     px    dxy    dyz    dz2    dxz  x2-y2    tot
    1  0.002  0.001  0.000  0.012  0.280  0.000  0.236  0.000  0.429  0.961
 
band     3 # energy    7.73927682 # occ.  2.00000000
 
ion      s     py     pz     px    dxy    dyz    dz2    dxz  x2-y2    tot
    1  0.000  0.001  0.001  0.000  0.004  0.150  0.387  0.168  0.261  0.971
 
band     4 # energy    7.73928735 # occ.  2.00000000
 
ion      s     py     pz     px    dxy    dyz    dz2    dxz  x2-y2    tot
    1  0.000  0.001  0.001  0.000  0.002  0.308  0.189  0.343  0.127  0.971
 
band     5 # energy    9.56698402 # occ.  2.00000000
 
ion      s     py     pz     px    dxy    dyz    dz2    dxz  x2-y2    tot
    1  0.000  0.000  0.000  0.000  0.496  0.140  0.111  0.125  0.103  0.975
 
band     6 # energy    9.56699237 # occ.  2.00000000
 
ion      s     py     pz     px    dxy    dyz    dz2    dxz  x2-y2    tot
    1  0.000  0.000  0.000  0.000  0.184  0.376  0.041  0.335  0.038  0.975
 
band     7 # energy   26.83788744 # occ.  0.00000000
 
ion      s     py     pz     px    dxy    dyz    dz2    dxz  x2-y2    tot
    1  0.000  0.000  0.000  0.003  0.022  0.000  0.019  0.000  0.034  0.078
 
band     8 # energy   28.47232430 # occ.  0.00000000
 
ion      s     py     pz     px    dxy    dyz    dz2    dxz  x2-y2    tot
    1  0.033  0.017  0.000  0.134  0.014  0.000  0.012  0.000  0.022  0.232
 
band     9 # energy   31.86742266 # occ.  0.00000000
 
ion      s     py     pz     px    dxy    dyz    dz2    dxz  x2-y2    tot
    1  0.000  0.085  0.064  0.011  0.012  0.026  0.026  0.000  0.001  0.223
 
band    10 # energy   31.86743393 # occ.  0.00000000
 
ion      s     py     pz     px    dxy    dyz    dz2    dxz  x2-y2    tot
    1  0.000  0.057  0.096  0.007  0.008  0.038  0.017  0.000  0.001  0.223
 
band    11 # energy   37.58338912 # occ.  0.00000000
 
ion      s     py     pz     px    dxy    dyz    dz2    dxz  x2-y2    tot
    1  0.002  0.033  0.000  0.261  0.084  0.000  0.071  0.000  0.128  0.578
 
band    12 # energy   40.43797130 # occ.  0.00000000
 
ion      s     py     pz     px    dxy    dyz    dz2    dxz  x2-y2    tot
    1  0.128  0.005  0.000  0.039  0.035  0.000  0.030  0.001  0.067  0.305
 

 k-point     3 :    0.00000000 0.12500000 0.00000000     weight = 0.00390625

band     1 # energy    1.76012004 # occ.  2.00000000
 
ion      s     py     pz     px    dxy    dyz    dz2    dxz  x2-y2    tot
    1  0.774  0.036  0.000  0.000  0.000  0.000  0.001  0.000  0.004  0.815
 
band     2 # energy    7.28063373 # occ.  2.00000000
 
ion      s     py     pz     px    dxy    dyz    dz2    dxz  x2-y2    tot
    1  0.002  0.013  0.000  0.000  0.000  0.000  0.236  0.000  0.709  0.961
 
band     3 # energy    7.73927499 # occ.  2.00000000
 
ion      s     py     pz     px    dxy    dyz    dz2    dxz  x2-y2    tot
    1  0.000  0.000  0.000  0.002  0.160  0.041  0.458  0.157  0.153  0.971
 
band     4 # energy    7.73928742 # occ.  2.00000000
 
ion      s     py     pz     px    dxy    dyz    dz2    dxz  x2-y2    tot
    1  0.000  0.000  0.002  0.000  0.041  0.160  0.118  0.611  0.039  0.971
 
band     5 # energy    9.56698329 # occ.  2.00000000
 
ion      s     py     pz     px    dxy    dyz    dz2    dxz  x2-y2    tot
    1  0.000  0.000  0.000  0.000  0.566  0.205  0.112  0.054  0.037  0.975
 
band     6 # energy    9.56699160 # occ.  2.00000000
 
ion      s     py     pz     px    dxy    dyz    dz2    dxz  x2-y2    tot
    1  0.000  0.000  0.000  0.000  0.205  0.566  0.041  0.149  0.014  0.975
 
band     7 # energy   26.83788892 # occ.  0.00000000
 
ion      s     py     pz     px    dxy    dyz    dz2    dxz  x2-y2    tot
    1  0.000  0.003  0.000  0.000  0.000  0.000  0.019  0.000  0.056  0.078
 
band     8 # energy   28.47232950 # occ.  0.00000000
 
ion      s     py     pz     px    dxy    dyz    dz2    dxz  x2-y2    tot
    1  0.033  0.151  0.000  0.000  0.000  0.000  0.012  0.000  0.036  0.232
 
band     9 # energy   31.86741740 # occ.  0.00000000
 
ion      s     py     pz     px    dxy    dyz    dz2    dxz  x2-y2    tot
    1  0.000  0.000  0.028  0.131  0.006  0.001  0.035  0.010  0.012  0.223
 
band    10 # energy   31.86743207 # occ.  0.00000000
 
ion      s     py     pz     px    dxy    dyz    dz2    dxz  x2-y2    tot
    1  0.000  0.000  0.131  0.028  0.001  0.006  0.008  0.047  0.003  0.223
 
band    11 # energy   37.58339184 # occ.  0.00000000
 
ion      s     py     pz     px    dxy    dyz    dz2    dxz  x2-y2    tot
    1  0.002  0.293  0.000  0.000  0.000  0.000  0.071  0.000  0.212  0.578
 
band    12 # energy   40.43834728 # occ.  0.00000000
 
ion      s     py     pz     px    dxy    dyz    dz2    dxz  x2-y2    tot
    1  0.125  0.041  0.003  0.005  0.008  0.005  0.014  0.003  0.115  0.318
 

 k-point     4 :    0.00000000 0.00000000 0.12500000     weight = 0.00390625

band     1 # energy    1.76011984 # occ.  2.00000000
 
ion      s     py     pz     px    dxy    dyz    dz2    dxz  x2-y2    tot
    1  0.774  0.004  0.024  0.008  0.000  0.001  0.001  0.002  0.000  0.815
 
band     2 # energy    7.28063269 # occ.  2.00000000
 
ion      s     py     pz     px    dxy    dyz    dz2    dxz  x2-y2    tot
    1  0.002  0.001  0.009  0.003  0.070  0.210  0.236  0.420  0.009  0.961
 
band     3 # energy    7.73927516 # occ.  2.00000000
 
ion      s     py     pz     px    dxy    dyz    dz2    dxz  x2-y2    tot
    1  0.000  0.001  0.000  0.001  0.147  0.024  0.006  0.000  0.792  0.971
 
band     4 # energy    7.73928788 # occ.  2.00000000
 
ion      s     py     pz     px    dxy    dyz    dz2    dxz  x2-y2    tot
    1  0.000  0.001  0.001  0.001  0.198  0.095  0.377  0.217  0.082  0.971
 
band     5 # energy    9.56698330 # occ.  2.00000000
 
ion      s     py     pz     px    dxy    dyz    dz2    dxz  x2-y2    tot
    1  0.000  0.000  0.000  0.000  0.002  0.636  0.000  0.319  0.017  0.975
 
band     6 # energy    9.56699231 # occ.  2.00000000
 
ion      s     py     pz     px    dxy    dyz    dz2    dxz  x2-y2    tot
    1  0.000  0.000  0.000  0.000  0.555  0.003  0.344  0.004  0.069  0.975
 
band     7 # energy   26.83788825 # occ.  0.00000000
 
ion      s     py     pz     px    dxy    dyz    dz2    dxz  x2-y2    tot
    1  0.000  0.000  0.002  0.001  0.005  0.016  0.019  0.033  0.001  0.078
 
band     8 # energy   28.47232716 # occ.  0.00000000
 
ion      s     py     pz     px    dxy    dyz    dz2    dxz  x2-y2    tot
    1  0.033  0.017  0.101  0.034  0.004  0.011  0.012  0.022  0.000  0.232
 
band     9 # energy   31.86741865 # occ.  0.00000000
 
ion      s     py     pz     px    dxy    dyz    dz2    dxz  x2-y2    tot
    1  0.000  0.079  0.002  0.078  0.009  0.031  0.000  0.010  0.014  0.223
 
band    10 # energy   31.86743404 # occ.  0.00000000
 
ion      s     py     pz     px    dxy    dyz    dz2    dxz  x2-y2    tot
    1  0.000  0.063  0.051  0.046  0.044  0.000  0.000  0.009  0.011  0.223
 
band    11 # energy   37.58339075 # occ.  0.00000000
 
ion      s     py     pz     px    dxy    dyz    dz2    dxz  x2-y2    tot
    1  0.002  0.033  0.196  0.065  0.021  0.063  0.071  0.126  0.003  0.578
 
band    12 # energy   40.43949939 # occ.  0.00000000
 
ion      s     py     pz     px    dxy    dyz    dz2    dxz  x2-y2    tot
    1  0.118  0.003  0.039  0.018  0.005  0.016  0.083  0.054  0.023  0.360
 

 k-point     5 :    0.12500000 0.12500000 0.12500000     weight = 0.00390625

band     1 # energy    1.76011825 # occ.  2.00000000
 
ion      s     py     pz     px    dxy    dyz    dz2    dxz  x2-y2    tot
    1  0.774  0.004  0.024  0.008  0.000  0.001  0.001  0.002  0.000  0.815
 
band     2 # energy    7.28064745 # occ.  2.00000000
 
ion      s     py     pz     px    dxy    dyz    dz2    dxz  x2-y2    tot
    1  0.002  0.001  0.009  0.003  0.070  0.210  0.236  0.420  0.009  0.961
 
band     3 # energy    7.73927317 # occ.  2.00000000
 
ion      s     py     pz     px    dxy    dyz    dz2    dxz  x2-y2    tot
    1  0.000  0.000  0.000  0.002  0.310  0.084  0.145  0.048  0.381  0.971
 
band     4 # energy    7.73927657 # occ.  2.00000000
 
ion      s     py     pz     px    dxy    dyz    dz2    dxz  x2-y2    tot
    1  0.000  0.002  0.000  0.000  0.034  0.034  0.238  0.169  0.493  0.971
 
band     5 # energy    9.56699514 # occ.  2.00000000
 
ion      s     py     pz     px    dxy    dyz    dz2    dxz  x2-y2    tot
    1  0.000  0.000  0.000  0.000  0.001  0.635  0.000  0.320  0.019  0.975
 
band     6 # energy    9.56699562 # occ.  2.00000000
 
ion      s     py     pz     px    dxy    dyz    dz2    dxz  x2-y2    tot
    1  0.000  0.000  0.000  0.000  0.556  0.004  0.344  0.003  0.068  0.975
 
band     7 # energy   26.83788675 # occ.  0.00000000
 
ion      s     py     pz     px    dxy    dyz    dz2    dxz  x2-y2    tot
    1  0.000  0.000  0.002  0.001  0.005  0.016  0.019  0.033  0.001  0.078
 
band     8 # energy   28.47234439 # occ.  0.00000000
 
ion      s     py     pz     px    dxy    dyz    dz2    dxz  x2-y2    tot
    1  0.033  0.017  0.101  0.034  0.004  0.011  0.012  0.022  0.000  0.232
 
band     9 # energy   31.86740414 # occ.  0.00000000
 
ion      s     py     pz     px    dxy    dyz    dz2    dxz  x2-y2    tot
    1  0.000  0.017  0.021  0.120  0.033  0.026  0.000  0.002  0.003  0.223
 
band    10 # energy   31.86741060 # occ.  0.00000000
 
ion      s     py     pz     px    dxy    dyz    dz2    dxz  x2-y2    tot
    1  0.000  0.124  0.032  0.004  0.020  0.005  0.000  0.017  0.022  0.223
 
band    11 # energy   37.58341829 # occ.  0.00000000
 
ion      s     py     pz     px    dxy    dyz    dz2    dxz  x2-y2    tot
    1  0.002  0.033  0.196  0.065  0.021  0.063  0.071  0.126  0.003  0.578
 
band    12 # energy   40.43826592 # occ.  0.00000000
 
ion      s     py     pz     px    dxy    dyz    dz2    dxz  x2-y2    tot
    1  0.126  0.018  0.017  0.013  0.011  0.047  0.008  0.075  0.002  0.316
 

 k-point     6 :    0.25000000 0.00000000 0.00000000     weight = 0.00390625

band     1 # energy    3.18942805 # occ.  2.00000000
 
ion      s     py     pz     px    dxy    dyz    dz2    dxz  x2-y2    tot
    1  0.618  0.010  0.000  0.076  0.039  0.000  0.033  0.000  0.060  0.836
 
band     2 # energy    7.18079255 # occ.  2.00000000
 
ion      s     py     pz     px    dxy    dyz    dz2    dxz  x2-y2    tot
    1  0.044  0.012  0.000  0.096  0.227  0.000  0.191  0.000  0.347  0.918
 
band     3 # energy    7.89304068 # occ.  2.00000000
 
ion      s     py     pz     px    dxy    dyz    dz2    dxz  x2-y2    tot
    1  0.000  0.000  0.002  0.000  0.005  0.778  0.047  0.122  0.011  0.966
 
band     4 # energy    7.89304490 # occ.  2.00000000
 
ion      s     py     pz     px    dxy    dyz    dz2    dxz  x2-y2    tot
    1  0.000  0.002  0.000  0.000  0.073  0.054  0.674  0.009  0.153  0.966
 
band     5 # energy    9.84136046 # occ.  2.00000000
 
ion      s     py     pz     px    dxy    dyz    dz2    dxz  x2-y2    tot
    1  0.000  0.002  0.001  0.000  0.439  0.035  0.001  0.222  0.265  0.966
 
band     6 # energy    9.84136874 # occ.  2.00000000
 
ion      s     py     pz     px    dxy    dyz    dz2    dxz  x2-y2    tot
    1  0.000  0.001  0.002  0.000  0.160  0.096  0.000  0.609  0.097  0.966
 
band     7 # energy   24.63302720 # occ.  0.00000000
 
ion      s     py     pz     px    dxy    dyz    dz2    dxz  x2-y2    tot
    1  0.114  0.028  0.000  0.227  0.058  0.000  0.049  0.000  0.089  0.564
 
band     8 # energy   27.68293571 # occ.  0.00000000
 
ion      s     py     pz     px    dxy    dyz    dz2    dxz  x2-y2    tot
    1  0.004  0.005  0.000  0.043  0.054  0.000  0.046  0.000  0.083  0.235
 
band     9 # energy   33.97328987 # occ.  0.00000000
 
ion      s     py     pz     px    dxy    dyz    dz2    dxz  x2-y2    tot
    1  0.000  0.064  0.262  0.008  0.004  0.177  0.043  0.029  0.010  0.598
 
band    10 # energy   33.97331502 # occ.  0.00000000
 
ion      s     py     pz     px    dxy    dyz    dz2    dxz  x2-y2    tot
    1  0.000  0.233  0.072  0.029  0.016  0.049  0.155  0.008  0.036  0.598
 
band    11 # energy   34.84319452 # occ.  0.00000000
 
ion      s     py     pz     px    dxy    dyz    dz2    dxz  x2-y2    tot
    1  0.046  0.026  0.000  0.211  0.001  0.000  0.001  0.000  0.002  0.289
 
band    12 # energy   36.26395302 # occ.  0.00000000
 
ion      s     py     pz     px    dxy    dyz    dz2    dxz  x2-y2    tot
    1  0.000  0.096  0.022  0.012  0.155  0.005  0.000  0.047  0.104  0.441
 

 k-point     7 :    0.00000000 0.25000000 0.00000000     weight = 0.00390625

band     1 # energy    3.18942948 # occ.  2.00000000
 
ion      s     py     pz     px    dxy    dyz    dz2    dxz  x2-y2    tot
    1  0.618  0.086  0.000  0.000  0.000  0.000  0.033  0.000  0.099  0.836
 
band     2 # energy    7.18079392 # occ.  2.00000000
 
ion      s     py     pz     px    dxy    dyz    dz2    dxz  x2-y2    tot
    1  0.044  0.108  0.000  0.000  0.000  0.000  0.191  0.000  0.574  0.918
 
band     3 # energy    7.89304191 # occ.  2.00000000
 
ion      s     py     pz     px    dxy    dyz    dz2    dxz  x2-y2    tot
    1  0.000  0.000  0.001  0.002  0.001  0.000  0.451  0.360  0.150  0.966
 
band     4 # energy    7.89304398 # occ.  2.00000000
 
ion      s     py     pz     px    dxy    dyz    dz2    dxz  x2-y2    tot
    1  0.000  0.000  0.002  0.001  0.000  0.001  0.270  0.602  0.090  0.966
 
band     5 # energy    9.84135883 # occ.  2.00000000
 
ion      s     py     pz     px    dxy    dyz    dz2    dxz  x2-y2    tot
    1  0.000  0.000  0.001  0.003  0.740  0.222  0.001  0.000  0.000  0.966
 
band     6 # energy    9.84136750 # occ.  2.00000000
 
ion      s     py     pz     px    dxy    dyz    dz2    dxz  x2-y2    tot
    1  0.000  0.000  0.003  0.001  0.222  0.740  0.000  0.001  0.000  0.966
 
band     7 # energy   24.63303358 # occ.  0.00000000
 
ion      s     py     pz     px    dxy    dyz    dz2    dxz  x2-y2    tot
    1  0.114  0.255  0.000  0.000  0.000  0.000  0.049  0.000  0.146  0.564
 
band     8 # energy   27.68293771 # occ.  0.00000000
 
ion      s     py     pz     px    dxy    dyz    dz2    dxz  x2-y2    tot
    1  0.004  0.048  0.000  0.000  0.000  0.000  0.046  0.000  0.137  0.235
 
band     9 # energy   33.97328715 # occ.  0.00000000
 
ion      s     py     pz     px    dxy    dyz    dz2    dxz  x2-y2    tot
    1  0.000  0.000  0.236  0.098  0.000  0.000  0.058  0.186  0.019  0.598
 
band    10 # energy   33.97330896 # occ.  0.00000000
 
ion      s     py     pz     px    dxy    dyz    dz2    dxz  x2-y2    tot
    1  0.000  0.000  0.098  0.236  0.000  0.000  0.139  0.077  0.046  0.598
 
band    11 # energy   34.84319562 # occ.  0.00000000
 
ion      s     py     pz     px    dxy    dyz    dz2    dxz  x2-y2    tot
    1  0.046  0.238  0.000  0.000  0.000  0.000  0.001  0.000  0.004  0.289
 
band    12 # energy   36.26393557 # occ.  0.00000000
 
ion      s     py     pz     px    dxy    dyz    dz2    dxz  x2-y2    tot
    1  0.000  0.000  0.027  0.102  0.246  0.066  0.000  0.000  0.000  0.441
 

 k-point     8 :    0.00000000 0.00000000 0.25000000     weight = 0.00390625

band     1 # energy    3.18942880 # occ.  2.00000000
 
ion      s     py     pz     px    dxy    dyz    dz2    dxz  x2-y2    tot
    1  0.618  0.010  0.057  0.019  0.010  0.029  0.033  0.059  0.001  0.836
 
band     2 # energy    7.18079345 # occ.  2.00000000
 
ion      s     py     pz     px    dxy    dyz    dz2    dxz  x2-y2    tot
    1  0.044  0.012  0.072  0.024  0.057  0.170  0.191  0.340  0.007  0.918
 
band     3 # energy    7.89304080 # occ.  2.00000000
 
ion      s     py     pz     px    dxy    dyz    dz2    dxz  x2-y2    tot
    1  0.000  0.000  0.001  0.002  0.610  0.221  0.068  0.024  0.041  0.966
 
band     4 # energy    7.89304470 # occ.  2.00000000
 
ion      s     py     pz     px    dxy    dyz    dz2    dxz  x2-y2    tot
    1  0.000  0.002  0.000  0.000  0.035  0.046  0.030  0.222  0.630  0.966
 
band     5 # energy    9.84135949 # occ.  2.00000000
 
ion      s     py     pz     px    dxy    dyz    dz2    dxz  x2-y2    tot
    1  0.000  0.002  0.000  0.001  0.025  0.440  0.001  0.235  0.261  0.966
 
band     6 # energy    9.84136827 # occ.  2.00000000
 
ion      s     py     pz     px    dxy    dyz    dz2    dxz  x2-y2    tot
    1  0.000  0.001  0.001  0.001  0.223  0.042  0.623  0.054  0.021  0.966
 
band     7 # energy   24.63303076 # occ.  0.00000000
 
ion      s     py     pz     px    dxy    dyz    dz2    dxz  x2-y2    tot
    1  0.114  0.028  0.170  0.057  0.014  0.043  0.049  0.087  0.002  0.564
 
band     8 # energy   27.68293675 # occ.  0.00000000
 
ion      s     py     pz     px    dxy    dyz    dz2    dxz  x2-y2    tot
    1  0.004  0.005  0.032  0.011  0.014  0.041  0.046  0.081  0.002  0.235
 
band     9 # energy   33.97328873 # occ.  0.00000000
 
ion      s     py     pz     px    dxy    dyz    dz2    dxz  x2-y2    tot
    1  0.000  0.045  0.110  0.180  0.166  0.029  0.028  0.033  0.007  0.598
 
band    10 # energy   33.97331179 # occ.  0.00000000
 
ion      s     py     pz     px    dxy    dyz    dz2    dxz  x2-y2    tot
    1  0.000  0.252  0.002  0.080  0.009  0.042  0.000  0.034  0.178  0.598
 
band    11 # energy   34.84319539 # occ.  0.00000000
 
ion      s     py     pz     px    dxy    dyz    dz2    dxz  x2-y2    tot
    1  0.046  0.026  0.159  0.053  0.000  0.001  0.001  0.002  0.000  0.289
 
band    12 # energy   36.26394968 # occ.  0.00000000
 
ion      s     py     pz     px    dxy    dyz    dz2    dxz  x2-y2    tot
    1  0.000  0.005  0.028  0.096  0.020  0.019  0.138  0.074  0.061  0.441
 

 k-point     9 :    0.25000000 0.25000000 0.25000000     weight = 0.00390625

band     1 # energy    3.18942003 # occ.  2.00000000
 
ion      s     py     pz     px    dxy    dyz    dz2    dxz  x2-y2    tot
    1  0.618  0.010  0.057  0.019  0.010  0.029  0.033  0.059  0.001  0.836
 
band     2 # energy    7.18078872 # occ.  2.00000000
 
ion      s     py     pz     px    dxy    dyz    dz2    dxz  x2-y2    tot
    1  0.044  0.012  0.072  0.024  0.057  0.170  0.191  0.340  0.007  0.918
 
band     3 # energy    7.89302334 # occ.  2.00000000
 
ion      s     py     pz     px    dxy    dyz    dz2    dxz  x2-y2    tot
    1  0.000  0.000  0.000  0.002  0.470  0.263  0.038  0.000  0.192  0.966
 
band     4 # energy    7.89302709 # occ.  2.00000000
 
ion      s     py     pz     px    dxy    dyz    dz2    dxz  x2-y2    tot
    1  0.000  0.002  0.001  0.000  0.174  0.004  0.060  0.246  0.480  0.966
 
band     5 # energy    9.84136249 # occ.  2.00000000
 
ion      s     py     pz     px    dxy    dyz    dz2    dxz  x2-y2    tot
    1  0.000  0.001  0.000  0.002  0.011  0.213  0.189  0.286  0.262  0.966
 
band     6 # energy    9.84136325 # occ.  2.00000000
 
ion      s     py     pz     px    dxy    dyz    dz2    dxz  x2-y2    tot
    1  0.000  0.002  0.001  0.000  0.237  0.269  0.434  0.003  0.020  0.966
 
band     7 # energy   24.63305174 # occ.  0.00000000
 
ion      s     py     pz     px    dxy    dyz    dz2    dxz  x2-y2    tot
    1  0.114  0.028  0.170  0.057  0.014  0.043  0.049  0.087  0.002  0.564
 
band     8 # energy   27.68294282 # occ.  0.00000000
 
ion      s     py     pz     px    dxy    dyz    dz2    dxz  x2-y2    tot
    1  0.004  0.005  0.032  0.011  0.014  0.041  0.046  0.081  0.002  0.235
 
band     9 # energy   33.97325111 # occ.  0.00000000
 
ion      s     py     pz     px    dxy    dyz    dz2    dxz  x2-y2    tot
    1  0.000  0.025  0.052  0.257  0.140  0.069  0.013  0.001  0.041  0.598
 
band    10 # energy   33.97325681 # occ.  0.00000000
 
ion      s     py     pz     px    dxy    dyz    dz2    dxz  x2-y2    tot
    1  0.000  0.272  0.059  0.003  0.035  0.002  0.015  0.067  0.145  0.598
 
band    11 # energy   34.84321640 # occ.  0.00000000
 
ion      s     py     pz     px    dxy    dyz    dz2    dxz  x2-y2    tot
    1  0.046  0.026  0.159  0.053  0.000  0.001  0.001  0.002  0.000  0.289
 
band    12 # energy   36.26392834 # occ.  0.00000000
 
ion      s     py     pz     px    dxy    dyz    dz2    dxz  x2-y2    tot
    1  0.000  0.004  0.038  0.087  0.037  0.001  0.186  0.054  0.034  0.441
 

 k-point    10 :    0.37500000 0.00000000 0.00000000     weight = 0.00390625

band     1 # energy    3.97053961 # occ.  2.00000000
 
ion      s     py     pz     px    dxy    dyz    dz2    dxz  x2-y2    tot
    1  0.342  0.003  0.000  0.023  0.158  0.000  0.133  0.000  0.242  0.901
 
band     2 # energy    7.61574015 # occ.  2.00000000
 
ion      s     py     pz     px    dxy    dyz    dz2    dxz  x2-y2    tot
    1  0.000  0.000  0.001  0.000  0.006  0.919  0.018  0.016  0.002  0.961
 
band     3 # energy    7.61574339 # occ.  2.00000000
 
ion      s     py     pz     px    dxy    dyz    dz2    dxz  x2-y2    tot
    1  0.000  0.001  0.000  0.000  0.205  0.025  0.671  0.000  0.059  0.961
 
band     4 # energy    8.85289740 # occ.  2.00000000
 
ion      s     py     pz     px    dxy    dyz    dz2    dxz  x2-y2    tot
    1  0.133  0.047  0.000  0.374  0.081  0.000  0.068  0.000  0.124  0.828
 
band     5 # energy   10.79333259 # occ.  2.00000000
 
ion      s     py     pz     px    dxy    dyz    dz2    dxz  x2-y2    tot
    1  0.000  0.002  0.001  0.000  0.342  0.004  0.024  0.255  0.345  0.973
 
band     6 # energy   10.79334557 # occ.  2.00000000
 
ion      s     py     pz     px    dxy    dyz    dz2    dxz  x2-y2    tot
    1  0.000  0.001  0.002  0.000  0.125  0.011  0.009  0.699  0.126  0.973
 
band     7 # energy   20.10996461 # occ.  0.00000000
 
ion      s     py     pz     px    dxy    dyz    dz2    dxz  x2-y2    tot
    1  0.290  0.027  0.000  0.218  0.095  0.000  0.080  0.000  0.145  0.855
 
band     8 # energy   26.21969254 # occ.  0.00000000
 
ion      s     py     pz     px    dxy    dyz    dz2    dxz  x2-y2    tot
    1  0.003  0.005  0.000  0.040  0.013  0.000  0.011  0.000  0.020  0.090
 
band     9 # energy   31.72697968 # occ.  0.00000000
 
ion      s     py     pz     px    dxy    dyz    dz2    dxz  x2-y2    tot
    1  0.000  0.097  0.367  0.012  0.003  0.010  0.007  0.059  0.011  0.566
 
band    10 # energy   31.72704328 # occ.  0.00000000
 
ion      s     py     pz     px    dxy    dyz    dz2    dxz  x2-y2    tot
    1  0.000  0.327  0.109  0.041  0.010  0.003  0.023  0.018  0.036  0.566
 
band    11 # energy   37.72769138 # occ.  0.00000000
 
ion      s     py     pz     px    dxy    dyz    dz2    dxz  x2-y2    tot
    1  0.076  0.008  0.000  0.063  0.062  0.000  0.047  0.000  0.091  0.347
 
band    12 # energy   37.97553785 # occ.  0.00000000
 
ion      s     py     pz     px    dxy    dyz    dz2    dxz  x2-y2    tot
    1  0.000  0.007  0.009  0.001  0.135  0.361  0.185  0.010  0.000  0.708
 

 k-point    11 :    0.00000000 0.37500000 0.00000000     weight = 0.00390625

band     1 # energy    3.97054101 # occ.  2.00000000
 
ion      s     py     pz     px    dxy    dyz    dz2    dxz  x2-y2    tot
    1  0.342  0.026  0.000  0.000  0.000  0.000  0.133  0.000  0.400  0.901
 
band     2 # energy    7.61574066 # occ.  2.00000000
 
ion      s     py     pz     px    dxy    dyz    dz2    dxz  x2-y2    tot
    1  0.000  0.000  0.000  0.001  0.036  0.006  0.596  0.125  0.199  0.961
 
band     3 # energy    7.61574212 # occ.  2.00000000
 
ion      s     py     pz     px    dxy    dyz    dz2    dxz  x2-y2    tot
    1  0.000  0.000  0.001  0.000  0.006  0.036  0.094  0.795  0.031  0.961
 
band     4 # energy    8.85289944 # occ.  2.00000000
 
ion      s     py     pz     px    dxy    dyz    dz2    dxz  x2-y2    tot
    1  0.133  0.420  0.000  0.000  0.000  0.000  0.068  0.000  0.205  0.828
 
band     5 # energy   10.79333207 # occ.  2.00000000
 
ion      s     py     pz     px    dxy    dyz    dz2    dxz  x2-y2    tot
    1  0.000  0.000  0.001  0.003  0.731  0.196  0.026  0.009  0.009  0.973
 
band     6 # energy   10.79334616 # occ.  2.00000000
 
ion      s     py     pz     px    dxy    dyz    dz2    dxz  x2-y2    tot
    1  0.000  0.000  0.003  0.001  0.196  0.731  0.007  0.034  0.002  0.973
 
band     7 # energy   20.10997139 # occ.  0.00000000
 
ion      s     py     pz     px    dxy    dyz    dz2    dxz  x2-y2    tot
    1  0.290  0.245  0.000  0.000  0.000  0.000  0.080  0.000  0.240  0.855
 
band     8 # energy   26.21969076 # occ.  0.00000000
 
ion      s     py     pz     px    dxy    dyz    dz2    dxz  x2-y2    tot
    1  0.003  0.044  0.000  0.000  0.000  0.000  0.011  0.000  0.032  0.090
 
band     9 # energy   31.72697668 # occ.  0.00000000
 
ion      s     py     pz     px    dxy    dyz    dz2    dxz  x2-y2    tot
    1  0.000  0.000  0.350  0.127  0.013  0.037  0.008  0.029  0.003  0.566
 
band    10 # energy   31.72703710 # occ.  0.00000000
 
ion      s     py     pz     px    dxy    dyz    dz2    dxz  x2-y2    tot
    1  0.000  0.000  0.127  0.350  0.037  0.013  0.022  0.010  0.007  0.566
 
band    11 # energy   37.72808681 # occ.  0.00000000
 
ion      s     py     pz     px    dxy    dyz    dz2    dxz  x2-y2    tot
    1  0.074  0.071  0.000  0.000  0.000  0.000  0.042  0.000  0.158  0.345
 
band    12 # energy   37.97552760 # occ.  0.00000000
 
ion      s     py     pz     px    dxy    dyz    dz2    dxz  x2-y2    tot
    1  0.000  0.000  0.012  0.005  0.044  0.115  0.111  0.384  0.037  0.708
 

 k-point    12 :    0.00000000 0.00000000 0.37500000     weight = 0.00390625

band     1 # energy    3.97054035 # occ.  2.00000000
 
ion      s     py     pz     px    dxy    dyz    dz2    dxz  x2-y2    tot
    1  0.342  0.003  0.017  0.006  0.039  0.118  0.133  0.237  0.005  0.901
 
band     2 # energy    7.61573966 # occ.  2.00000000
 
ion      s     py     pz     px    dxy    dyz    dz2    dxz  x2-y2    tot
    1  0.000  0.000  0.000  0.001  0.605  0.310  0.007  0.002  0.038  0.961
 
band     3 # energy    7.61574323 # occ.  2.00000000
 
ion      s     py     pz     px    dxy    dyz    dz2    dxz  x2-y2    tot
    1  0.000  0.001  0.000  0.000  0.156  0.085  0.005  0.269  0.445  0.961
 
band     4 # energy    8.85289865 # occ.  2.00000000
 
ion      s     py     pz     px    dxy    dyz    dz2    dxz  x2-y2    tot
    1  0.133  0.047  0.280  0.093  0.020  0.061  0.068  0.122  0.003  0.828
 
band     5 # energy   10.79333241 # occ.  2.00000000
 
ion      s     py     pz     px    dxy    dyz    dz2    dxz  x2-y2    tot
    1  0.000  0.002  0.000  0.001  0.050  0.277  0.003  0.165  0.475  0.973
 
band     6 # energy   10.79334593 # occ.  2.00000000
 
ion      s     py     pz     px    dxy    dyz    dz2    dxz  x2-y2    tot
    1  0.000  0.001  0.001  0.001  0.078  0.077  0.713  0.100  0.002  0.973
 
band     7 # energy   20.10996845 # occ.  0.00000000
 
ion      s     py     pz     px    dxy    dyz    dz2    dxz  x2-y2    tot
    1  0.290  0.027  0.163  0.054  0.024  0.071  0.080  0.142  0.003  0.855
 
band     8 # energy   26.21969148 # occ.  0.00000000
 
ion      s     py     pz     px    dxy    dyz    dz2    dxz  x2-y2    tot