 running on   16 total cores
 distrk:  each k-point on   16 cores,    1 groups
 distr:  one band on    4 cores,    4 groups
 vasp.6.2.0 18Jan21 (build Feb  1 2022 01:28:57) complex                         
 POSCAR found type information on POSCAR Pt
 POSCAR found :  1 types and       1 ions
 scaLAPACK will be used
 -----------------------------------------------------------------------------
|                                                                             |
|               ----> ADVICE to this user running VASP <----                  |
|                                                                             |
|     You enforced a specific xc type in the INCAR file but a different       |
|     type was found in the POTCAR file.                                      |
|     I HOPE YOU KNOW WHAT YOU ARE DOING!                                     |
|                                                                             |
 -----------------------------------------------------------------------------

 LDA part: xc-table for Pade appr. of Perdew
 POSCAR, INCAR and KPOINTS ok, starting setup
 FFT: planning ...
 WAVECAR not read
 entering main loop
       N       E                     dE             d eps       ncg     rms          rms(c)
DAV:   1     0.240252529633E+02    0.24025E+02   -0.38609E+03  7240   0.496E+02
DAV:   2    -0.544848708233E+01   -0.29474E+02   -0.28168E+02  7572   0.128E+02
DAV:   3    -0.575991296258E+01   -0.31143E+00   -0.31048E+00  7652   0.120E+01
DAV:   4    -0.576121642066E+01   -0.13035E-02   -0.13034E-02  7628   0.916E-01
DAV:   5    -0.576122657129E+01   -0.10151E-04   -0.10152E-04  7796   0.726E-02    0.126E+01
DAV:   6    -0.545469757697E+01    0.30653E+00   -0.60743E-01  6756   0.600E+00    0.678E+00
DAV:   7    -0.541438389425E+01    0.40314E-01   -0.14489E-01  7432   0.291E+00    0.241E+00
DAV:   8    -0.541135240015E+01    0.30315E-02   -0.62460E-03  6980   0.613E-01    0.617E-01
DAV:   9    -0.541111680512E+01    0.23560E-03   -0.14418E-04  7092   0.984E-02    0.787E-02
DAV:  10    -0.541111825539E+01   -0.14503E-05   -0.58560E-06  3444   0.197E-02
   1 F= -.54111183E+01 E0= -.54097167E+01  d E =-.280312E-02
