<?xml version="1.0" encoding="ISO-8859-1"?>
<modeling>
 <generator>
  <i name="program" type="string">vasp </i>
  <i name="version" type="string">6.2.0  </i>
  <i name="subversion" type="string">18Jan21 (build Feb  1 2022 01:28:57) complex                          parallel </i>
  <i name="platform" type="string">LinuxPGI </i>
  <i name="date" type="string">2022 05 18 </i>
  <i name="time" type="string">19:36:55 </i>
 </generator>
 <incar>
  <i type="string" name="PREC">Normal</i>
  <i type="string" name="ALGO">38</i>
  <i type="int" name="ISPIN">     1</i>
  <i type="int" name="NELM">    60</i>
  <i type="int" name="NELMIN">     4</i>
  <i type="int" name="IBRION">     2</i>
  <i name="EDIFF">      0.00010000</i>
  <i name="EDIFFG">     -0.03000000</i>
  <i type="int" name="NSW">     0</i>
  <i type="int" name="ISIF">     0</i>
  <i type="int" name="ISYM">     0</i>
  <i name="SYMPREC">      0.00001000</i>
  <i name="ENCUT">    420.00000000</i>
  <i type="logical" name="LREAL"> F  </i>
  <i type="int" name="ISMEAR">     0</i>
  <i name="SIGMA">      0.05000000</i>
  <i type="logical" name="LWAVE"> F  </i>
  <i type="logical" name="LVTOT"> F  </i>
  <i type="int" name="LORBIT">    11</i>
  <i type="logical" name="LASPH"> F  </i>
  <i type="string" name="GGA">RP</i>
 </incar>
 <primitive_cell>
  <structure name="primitive_cell" >
   <crystal>
    <varray name="basis" >
     <v>       2.72704500       0.00000500       1.57447600 </v>
     <v>       0.90902100       2.57107900       1.57447600 </v>
     <v>       0.00000700       0.00000500       3.14892700 </v>
    </varray>
    <i name="volume">     22.07848137 </i>
    <varray name="rec_basis" >
     <v>       0.36669788      -0.12964795      -0.00000061 </v>
     <v>      -0.00000036       0.38894227      -0.00000062 </v>
     <v>      -0.18335022      -0.12964819       0.31756911 </v>
    </varray>
   </crystal>
   <varray name="positions" >
    <v>       0.00000000       0.00000000       0.00000000 </v>
   </varray>
  </structure>
  <varray name="primitive_index" >
   <v type="int" >        1 </v>
  </varray>
 </primitive_cell>
 <kpoints>
  <generation param="Gamma">
   <v type="int" name="divisions">       5        5        5 </v>
   <v name="usershift">      0.00000000       0.00000000       0.00000000 </v>
   <v name="genvec1">      0.20000000      -0.00000000       0.00000000 </v>
   <v name="genvec2">      0.00000000       0.20000000       0.00000000 </v>
   <v name="genvec3">     -0.00000000      -0.00000000       0.20000000 </v>
   <v name="shift">      0.00000000       0.00000000       0.00000000 </v>
  </generation>
  <varray name="kpointlist" >
   <v>       0.00000000       0.00000000       0.00000000 </v>
   <v>       0.20000000       0.00000000       0.00000000 </v>
   <v>       0.00000000       0.20000000       0.00000000 </v>
   <v>       0.00000000       0.00000000       0.20000000 </v>
   <v>       0.20000000       0.20000000       0.20000000 </v>
   <v>       0.40000000       0.00000000       0.00000000 </v>
   <v>       0.00000000       0.40000000       0.00000000 </v>
   <v>       0.00000000       0.00000000       0.40000000 </v>
   <v>       0.40000000       0.40000000       0.40000000 </v>
   <v>       0.20000000       0.20000000       0.00000000 </v>
   <v>       0.00000000       0.20000000       0.20000000 </v>
   <v>       0.20000000       0.00000000       0.20000000 </v>
   <v>       0.40000000       0.20000000       0.00000000 </v>
   <v>       0.00000000       0.40000000       0.20000000 </v>
   <v>       0.20000000       0.00000000       0.40000000 </v>
   <v>       0.20000000       0.20000000      -0.20000000 </v>
   <v>       0.40000000       0.20000000       0.40000000 </v>
   <v>       0.20000000       0.40000000       0.00000000 </v>
   <v>       0.20000000      -0.20000000      -0.20000000 </v>
   <v>       0.40000000       0.40000000       0.20000000 </v>
   <v>       0.00000000       0.20000000       0.40000000 </v>
   <v>      -0.20000000       0.20000000      -0.20000000 </v>
   <v>       0.20000000       0.40000000       0.40000000 </v>
   <v>       0.40000000       0.00000000       0.20000000 </v>
   <v>      -0.40000000       0.20000000       0.00000000 </v>
   <v>       0.00000000      -0.40000000       0.20000000 </v>
   <v>       0.20000000       0.00000000      -0.40000000 </v>
   <v>       0.20000000       0.20000000      -0.40000000 </v>
   <v>      -0.40000000       0.40000000      -0.40000000 </v>
   <v>       0.20000000      -0.40000000       0.00000000 </v>
   <v>       0.40000000      -0.20000000      -0.20000000 </v>
   <v>      -0.40000000      -0.40000000       0.40000000 </v>
   <v>       0.00000000       0.20000000      -0.40000000 </v>
   <v>      -0.20000000       0.40000000      -0.20000000 </v>
   <v>       0.40000000      -0.40000000      -0.40000000 </v>
   <v>      -0.40000000       0.00000000       0.20000000 </v>
   <v>      -0.20000000       0.20000000       0.00000000 </v>
   <v>       0.00000000      -0.20000000       0.20000000 </v>
   <v>       0.20000000       0.00000000      -0.20000000 </v>
   <v>       0.20000000       0.20000000       0.40000000 </v>
   <v>      -0.20000000      -0.40000000      -0.20000000 </v>
   <v>      -0.40000000      -0.20000000      -0.20000000 </v>
   <v>       0.40000000       0.40000000       0.00000000 </v>
   <v>       0.00000000       0.40000000       0.40000000 </v>
   <v>       0.40000000       0.00000000       0.40000000 </v>
   <v>      -0.40000000       0.40000000       0.00000000 </v>
   <v>       0.00000000      -0.40000000       0.40000000 </v>
   <v>       0.40000000       0.00000000      -0.40000000 </v>
   <v>       0.40000000       0.40000000      -0.20000000 </v>
   <v>      -0.40000000       0.20000000      -0.40000000 </v>
   <v>       0.20000000      -0.40000000      -0.40000000 </v>
   <v>      -0.40000000       0.40000000       0.20000000 </v>
   <v>       0.20000000      -0.40000000       0.40000000 </v>
   <v>       0.40000000       0.20000000      -0.40000000 </v>
   <v>       0.40000000       0.20000000      -0.20000000 </v>
   <v>      -0.40000000       0.20000000       0.40000000 </v>
   <v>       0.20000000      -0.40000000      -0.20000000 </v>
   <v>       0.20000000       0.40000000      -0.20000000 </v>
   <v>       0.20000000      -0.20000000      -0.40000000 </v>
   <v>       0.40000000      -0.40000000       0.20000000 </v>
   <v>      -0.20000000       0.20000000      -0.40000000 </v>
   <v>      -0.40000000       0.20000000      -0.20000000 </v>
   <v>       0.20000000       0.40000000      -0.40000000 </v>
  </varray>
  <varray name="weights" >
   <v>       0.00800000 </v>
   <v>       0.01600000 </v>
   <v>       0.01600000 </v>
   <v>       0.01600000 </v>
   <v>       0.01600000 </v>
   <v>       0.01600000 </v>
   <v>       0.01600000 </v>
   <v>       0.01600000 </v>
   <v>       0.01600000 </v>
   <v>       0.01600000 </v>
   <v>       0.01600000 </v>
   <v>       0.01600000 </v>
   <v>       0.01600000 </v>
   <v>       0.01600000 </v>
   <v>       0.01600000 </v>
   <v>       0.01600000 </v>
   <v>       0.01600000 </v>
   <v>       0.01600000 </v>
   <v>       0.01600000 </v>
   <v>       0.01600000 </v>
   <v>       0.01600000 </v>
   <v>       0.01600000 </v>
   <v>       0.01600000 </v>
   <v>       0.01600000 </v>
   <v>       0.01600000 </v>
   <v>       0.01600000 </v>
   <v>       0.01600000 </v>
   <v>       0.01600000 </v>
   <v>       0.01600000 </v>
   <v>       0.01600000 </v>
   <v>       0.01600000 </v>
   <v>       0.01600000 </v>
   <v>       0.01600000 </v>
   <v>       0.01600000 </v>
   <v>       0.01600000 </v>
   <v>       0.01600000 </v>
   <v>       0.01600000 </v>
   <v>       0.01600000 </v>
   <v>       0.01600000 </v>
   <v>       0.01600000 </v>
   <v>       0.01600000 </v>
   <v>       0.01600000 </v>
   <v>       0.01600000 </v>
   <v>       0.01600000 </v>
   <v>       0.01600000 </v>
   <v>       0.01600000 </v>
   <v>       0.01600000 </v>
   <v>       0.01600000 </v>
   <v>       0.01600000 </v>
   <v>       0.01600000 </v>
   <v>       0.01600000 </v>
   <v>       0.01600000 </v>
   <v>       0.01600000 </v>
   <v>       0.01600000 </v>
   <v>       0.01600000 </v>
   <v>       0.01600000 </v>
   <v>       0.01600000 </v>
   <v>       0.01600000 </v>
   <v>       0.01600000 </v>
   <v>       0.01600000 </v>
   <v>       0.01600000 </v>
   <v>       0.01600000 </v>
   <v>       0.01600000 </v>
  </varray>
 </kpoints>
 <parameters>
  <separator name="general" >
   <i type="string" name="SYSTEM">unknown system</i>
   <i type="logical" name="LCOMPAT"> F  </i>
  </separator>
  <separator name="electronic" >
   <i type="string" name="PREC">normal</i>
   <i name="ENMAX">    420.00000000</i>
   <i name="ENAUG">    358.96600000</i>
   <i name="EDIFF">      0.00010000</i>
   <i type="int" name="IALGO">    38</i>
   <i type="int" name="IWAVPR">    10</i>
   <i type="int" name="NBANDS">    12</i>
   <i type="int" name="NBANDSLOW">    -1</i>
   <i type="int" name="NBANDSHIGH">    -1</i>
   <i name="NELECT">     10.00000000</i>
   <i type="int" name="TURBO">     0</i>
   <i type="int" name="IRESTART">     0</i>
   <i type="int" name="NREBOOT">     0</i>
   <i type="int" name="NMIN">     0</i>
   <i name="EREF">      0.00000000</i>
   <separator name="electronic smearing" >
    <i type="int" name="ISMEAR">     0</i>
    <i name="SIGMA">      0.05000000</i>
    <i name="KSPACING">      0.50000000</i>
    <i type="logical" name="KGAMMA"> T  </i>
    <i type="logical" name="KBLOWUP"> T  </i>
   </separator>
   <separator name="electronic projectors" >
    <i type="logical" name="LREAL"> F  </i>
    <v name="ROPT">      0.00000000</v>
    <i type="int" name="LMAXPAW">  -100</i>
    <i type="int" name="LMAXMIX">     2</i>
    <i type="logical" name="NLSPLINE"> F  </i>
   </separator>
   <separator name="electronic startup" >
    <i type="int" name="ISTART">     0</i>
    <i type="int" name="ICHARG">     2</i>
    <i type="int" name="INIWAV">     1</i>
   </separator>
   <separator name="electronic spin" >
    <i type="int" name="ISPIN">     1</i>
    <i type="logical" name="LNONCOLLINEAR"> F  </i>
    <v name="MAGMOM">      1.00000000</v>
    <i name="NUPDOWN">     -1.00000000</i>
    <i type="logical" name="LSORBIT"> F  </i>
    <v name="SAXIS">      0.00000000      0.00000000      1.00000000</v>
    <i type="logical" name="LSPIRAL"> F  </i>
    <v name="QSPIRAL">      0.00000000      0.00000000      0.00000000</v>
    <i type="logical" name="LZEROZ"> F  </i>
   </separator>
   <separator name="electronic exchange-correlation" >
    <i type="logical" name="LASPH"> F  </i>
    <i type="logical" name="LMETAGGA"> F  </i>
   </separator>
   <separator name="electronic convergence" >
    <i type="int" name="NELM">    60</i>
    <i type="int" name="NELMDL">    -5</i>
    <i type="int" name="NELMIN">     4</i>
    <i name="ENINI">    420.00000000</i>
    <separator name="electronic convergence detail" >
     <i type="logical" name="LDIAG"> T  </i>
     <i type="logical" name="LSUBROT"> F  </i>
     <i name="WEIMIN">      0.00000000</i>
     <i name="EBREAK">      0.00000208</i>
     <i name="DEPER">      0.30000000</i>
     <i type="int" name="NRMM">     4</i>
     <i name="TIME">      0.40000000</i>
    </separator>
   </separator>
   <separator name="electronic mixer" >
    <i name="AMIX">      0.40000000</i>
    <i name="BMIX">      1.00000000</i>
    <i name="AMIN">      0.10000000</i>
    <i name="AMIX_MAG">      1.60000000</i>
    <i name="BMIX_MAG">      1.00000000</i>
    <separator name="electronic mixer details" >
     <i type="int" name="IMIX">     4</i>
     <i type="logical" name="MIXFIRST"> F  </i>
     <i type="int" name="MAXMIX">   -45</i>
     <i name="WC">    100.00000000</i>
     <i type="int" name="INIMIX">     1</i>
     <i type="int" name="MIXPRE">     1</i>
     <i type="int" name="MREMOVE">     5</i>
    </separator>
   </separator>
   <separator name="electronic dipolcorrection" >
    <i type="logical" name="LDIPOL"> F  </i>
    <i type="logical" name="LMONO"> F  </i>
    <i type="int" name="IDIPOL">     0</i>
    <i name="EPSILON">      1.00000000</i>
    <v name="DIPOL">   -100.00000000   -100.00000000   -100.00000000</v>
    <i name="EFIELD">      0.00000000</i>
   </separator>
  </separator>
  <separator name="grids" >
   <i type="int" name="NGX">    16</i>
   <i type="int" name="NGY">    16</i>
   <i type="int" name="NGZ">    16</i>
   <i type="int" name="NGXF">    32</i>
   <i type="int" name="NGYF">    32</i>
   <i type="int" name="NGZF">    32</i>
   <i type="logical" name="ADDGRID"> F  </i>
  </separator>
  <separator name="ionic" >
   <i type="int" name="NSW">     0</i>
   <i type="int" name="IBRION">    -1</i>
   <i type="int" name="MDALGO">     0</i>
   <i type="int" name="ISIF">     0</i>
   <i name="PSTRESS">      0.00000000</i>
   <i name="EDIFFG">     -0.03000000</i>
   <i type="int" name="NFREE">     1</i>
   <i name="POTIM">      0.50000000</i>
   <i name="SMASS">     -3.00000000</i>
   <i name="SCALEE">      1.00000000</i>
  </separator>
  <separator name="ionic md" >
   <i name="TEBEG">      0.00010000</i>
   <i name="TEEND">      0.00010000</i>
   <i type="int" name="NBLOCK">     1</i>
   <i type="int" name="KBLOCK">     1</i>
   <i type="int" name="NPACO">   256</i>
   <i name="APACO">     16.00000000</i>
  </separator>
  <separator name="symmetry" >
   <i type="int" name="ISYM">     0</i>
   <i name="SYMPREC">      0.00001000</i>
  </separator>
  <separator name="dos" >
   <i type="int" name="LORBIT">    11</i>
   <v name="RWIGS">     -1.00000000</v>
   <i type="int" name="NEDOS">   301</i>
   <i name="EMIN">     10.00000000</i>
   <i name="EMAX">    -10.00000000</i>
   <i name="EFERMI">      0.00000000</i>
  </separator>
  <separator name="writing" >
   <i type="int" name="NWRITE">     2</i>
   <i type="logical" name="LWAVE"> F  </i>
   <i type="logical" name="LDOWNSAMPLE"> F  </i>
   <i type="logical" name="LCHARG"> T  </i>
   <i type="logical" name="LPARD"> F  </i>
   <i type="logical" name="LVTOT"> F  </i>
   <i type="logical" name="LVHAR"> F  </i>
   <i type="logical" name="LELF"> F  </i>
   <i type="logical" name="LOPTICS"> F  </i>
   <v name="STM">      0.00000000      0.00000000      0.00000000      0.00000000      0.00000000      0.00000000      0.00000000</v>
  </separator>
  <separator name="performance" >
   <i type="int" name="NPAR">     4</i>
   <i type="int" name="NSIM">     4</i>
   <i type="int" name="NBLK">    -1</i>
   <i type="logical" name="LPLANE"> T  </i>
   <i type="logical" name="LSCALAPACK"> T  </i>
   <i type="logical" name="LSCAAWARE"> F  </i>
   <i type="logical" name="LSCALU"> F  </i>
   <i type="logical" name="LASYNC"> F  </i>
   <i type="logical" name="LORBITALREAL"> F  </i>
  </separator>
  <separator name="miscellaneous" >
   <i type="int" name="IDIOT">     3</i>
   <i type="int" name="PHON_NSTRUCT">    -1</i>
   <i type="logical" name="LMUSIC"> F  </i>
   <v name="POMASS">    195.08000000</v>
   <v name="DARWINR">      0.00000000</v>
   <v name="DARWINV">      1.00000000</v>
   <i type="logical" name="LCORR"> T  </i>
  </separator>
  <i type="logical" name="GGA_COMPAT"> T  </i>
  <i type="logical" name="LBERRY"> F  </i>
  <i type="int" name="ICORELEVEL">     0</i>
  <i type="logical" name="LDAU"> F  </i>
  <i type="int" name="I_CONSTRAINED_M">     0</i>
  <separator name="electronic exchange-correlation" >
   <i type="string" name="GGA">RP</i>
   <i type="int" name="VOSKOWN">     0</i>
   <i type="logical" name="LHFCALC"> F  </i>
   <i type="string" name="PRECFOCK"></i>
   <i type="logical" name="LSYMGRAD"> F  </i>
   <i type="logical" name="LHFONE"> F  </i>
   <i type="logical" name="LRHFCALC"> F  </i>
   <i type="logical" name="LTHOMAS"> F  </i>
   <i type="logical" name="LMODELHF"> F  </i>
   <i type="logical" name="LFOCKACE"> F  </i>
   <i name="ENCUT4O">     -1.00000000</i>
   <i type="int" name="EXXOEP">     0</i>
   <i type="int" name="FOURORBIT">     0</i>
   <i name="AEXX">      0.00000000</i>
   <i name="HFALPHA">      0.00000000</i>
   <i name="MCALPHA">      0.00000000</i>
   <i name="ALDAX">      1.00000000</i>
   <i name="AGGAX">      1.00000000</i>
   <i name="ALDAC">      1.00000000</i>
   <i name="AGGAC">      1.00000000</i>
   <i type="int" name="NKREDX">     1</i>
   <i type="int" name="NKREDY">     1</i>
   <i type="int" name="NKREDZ">     1</i>
   <i type="logical" name="SHIFTRED"> F  </i>
   <i type="logical" name="ODDONLY"> F  </i>
   <i type="logical" name="EVENONLY"> F  </i>
   <i type="int" name="LMAXFOCK">     0</i>
   <i type="int" name="NMAXFOCKAE">     0</i>
   <i type="logical" name="LFOCKAEDFT"> F  </i>
   <i name="HFSCREEN">      0.00000000</i>
   <i name="HFSCREENC">      0.00000000</i>
   <i type="int" name="NBANDSGWLOW">     0</i>
  </separator>
  <separator name="vdW DFT" >
   <i type="logical" name="LUSE_VDW"> F  </i>
   <i name="Zab_VDW">     -0.84910000</i>
   <i name="PARAM1">      0.12340000</i>
   <i name="PARAM2">      1.00000000</i>
   <i name="PARAM3">      0.00000000</i>
  </separator>
  <separator name="model GW" >
   <i type="int" name="MODEL_GW">     0</i>
   <i name="MODEL_EPS0">     13.24708882</i>
   <i name="MODEL_ALPHA">      1.00000000</i>
  </separator>
  <separator name="linear response parameters" >
   <i type="logical" name="LEPSILON"> F  </i>
   <i type="logical" name="LRPA"> F  </i>
   <i type="logical" name="LNABLA"> F  </i>
   <i type="logical" name="LVEL"> F  </i>
   <i type="int" name="KINTER">     0</i>
   <i name="CSHIFT">      0.10000000</i>
   <i name="OMEGAMAX">     -1.00000000</i>
   <i name="DEG_THRESHOLD">      0.00200000</i>
   <i name="RTIME">     -0.10000000</i>
   <i name="WPLASMAI">      0.00000000</i>
   <v name="DFIELD">      0.00000000      0.00000000      0.00000000</v>
   <v name="WPLASMA">      0.00000000      0.00000000      0.00000000      0.00000000      0.00000000      0.00000000      0.00000000      0.00000000      0.00000000</v>
  </separator>
  <separator name="orbital magnetization" >
   <i type="logical" name="NUCIND"> F  </i>
   <v name="MAGPOS">      0.00000000      0.00000000      0.00000000</v>
   <i type="logical" name="LNICSALL"> T  </i>
   <i type="logical" name="ORBITALMAG"> F  </i>
   <i type="logical" name="LMAGBLOCH"> F  </i>
   <i type="logical" name="LCHIMAG"> F  </i>
   <i type="logical" name="LGAUGE"> T  </i>
   <i type="int" name="MAGATOM">     0</i>
   <v name="MAGDIPOL">      0.00000000      0.00000000      0.00000000</v>
   <v name="AVECCONST">      0.00000000      0.00000000      0.00000000</v>
  </separator>
  <separator name="response functions" >
   <i type="logical" name="LFINITE_TEMPERATURE"> F  </i>
   <i type="logical" name="LADDER"> F  </i>
   <i type="logical" name="LRPAFORCE"> F  </i>
   <i type="logical" name="LFXC"> F  </i>
   <i type="logical" name="LHARTREE"> T  </i>
   <i type="int" name="IBSE">     0</i>
   <v type="int" name="KPOINT">    -1     0     0     0</v>
   <i type="logical" name="LTCTC"> F  </i>
   <i type="logical" name="LTCTE"> F  </i>
   <i type="logical" name="LTETE"> F  </i>
   <i type="logical" name="LTRIPLET"> F  </i>
   <i type="logical" name="LFXCEPS"> F  </i>
   <i type="logical" name="LFXHEG"> F  </i>
   <i type="int" name="NATURALO">     2</i>
   <i type="logical" name="LHOLEGF"> F  </i>
   <i type="logical" name="L2ORDER"> F  </i>
   <i type="logical" name="LDMP1"> F  </i>
   <i type="logical" name="LMP2LT"> F  </i>
   <i type="logical" name="LSMP2LT"> F  </i>
   <i type="logical" name="LGWLF"> F  </i>
   <i name="ENCUTGW">     -2.00000000</i>
   <i name="ENCUTGWSOFT">     -2.00000000</i>
   <i name="ENCUTLF">     -1.00000000</i>
   <i type="logical" name="LESF_SPLINES"> F  </i>
   <i type="int" name="LMAXMP2">    -1</i>
   <i name="SCISSOR">      0.00000000</i>
   <i type="int" name="NOMEGA">     0</i>
   <i type="int" name="NOMEGAR">     0</i>
   <i type="int" name="NBANDSGW">    -1</i>
   <i type="int" name="NBANDSO">    -1</i>
   <i type="int" name="NBANDSV">    -1</i>
   <i type="int" name="NELM">    60</i>
   <i type="int" name="NELMHF">     1</i>
   <i type="int" name="DIM">     3</i>
   <i type="int" name="IESPILON">     4</i>
   <i type="int" name="ANTIRES">     0</i>
   <i name="OMEGAMAX">    -30.00000000</i>
   <i name="OMEGAMIN">    -30.00000000</i>
   <i name="OMEGATL">   -200.00000000</i>
   <i type="int" name="OMEGAGRID">     0</i>
   <i name="CSHIFT">     -0.10000000</i>
   <i type="logical" name="LSELFENERGY"> F  </i>
   <i type="logical" name="LSPECTRAL"> F  </i>
   <i type="logical" name="LSPECTRALGW"> F  </i>
   <i type="logical" name="LSINGLES"> F  </i>
   <i type="logical" name="LFERMIGW"> F  </i>
   <i type="logical" name="ODDONLYGW"> F  </i>
   <i type="logical" name="EVENONLYGW"> F  </i>
   <i type="int" name="NKREDLFX">     1</i>
   <i type="int" name="NKREDLFY">     1</i>
   <i type="int" name="NKREDLFZ">     1</i>
   <i type="int" name="MAXMEM">  2800</i>
   <i type="int" name="TELESCOPE">     0</i>
   <i type="int" name="NTAUPAR">    -1</i>
   <i type="int" name="NOMEGAPAR">    -1</i>
   <i name="DAMP_NEWTON">      0.80000001</i>
   <i name="LAMBDA">      1.00000000</i>
  </separator>
  <separator name="External order field" >
   <i name="OFIELD_KAPPA">      0.00000000</i>
   <v name="OFIELD_K">      0.00000000      0.00000000      0.00000000</v>
   <i name="OFIELD_Q6_NEAR">      0.00000000</i>
   <i name="OFIELD_Q6_FAR">      0.00000000</i>
   <i name="OFIELD_A">      0.00000000</i>
  </separator>
 </parameters>
 <atominfo>
  <atoms>       1 </atoms>
  <types>       1 </types>
  <array name="atoms" >
   <dimension dim="1">ion</dimension>
   <field type="string">element</field>
   <field type="int">atomtype</field>
   <set>
    <rc><c>Pt</c><c>   1</c></rc>
   </set>
  </array>
  <array name="atomtypes" >
   <dimension dim="1">type</dimension>
   <field type="int">atomspertype</field>
   <field type="string">element</field>
   <field>mass</field>
   <field>valence</field>
   <field type="string">pseudopotential</field>
   <set>
    <rc><c>   1</c><c>Pt</c><c>    195.08000000</c><c>     10.00000000</c><c>  PAW_PBE Pt 04Feb2005                  </c></rc>
   </set>
  </array>
 </atominfo>
 <structure name="initialpos" >
  <crystal>
   <varray name="basis" >
    <v>       2.72704500       0.00000500       1.57447600 </v>
    <v>       0.90902100       2.57107900       1.57447600 </v>
    <v>       0.00000700       0.00000500       3.14892700 </v>
   </varray>
   <i name="volume">     22.07848137 </i>
   <varray name="rec_basis" >
    <v>       0.36669788      -0.12964795      -0.00000061 </v>
    <v>      -0.00000036       0.38894227      -0.00000062 </v>
    <v>      -0.18335022      -0.12964819       0.31756911 </v>
   </varray>
  </crystal>
  <varray name="positions" >
   <v>       0.00000000       0.00000000       0.00000000 </v>
  </varray>
 </structure>
 <calculation>
  <scstep>
   <time name="dav">    0.27    0.27</time>
   <time name="total">    0.28    0.28</time>
   <energy>
    <i name="alphaZ">     43.05471260 </i>
    <i name="ewald">   -741.26920166 </i>
    <i name="hartreedc">   -108.43054796 </i>
    <i name="XCdc">      2.10852995 </i>
    <i name="pawpsdc">    696.70595042 </i>
    <i name="pawaedc">   -667.45827301 </i>
    <i name="eentropy">     -0.00205170 </i>
    <i name="bandstr">     78.55604234 </i>
    <i name="atom">    728.31920932 </i>
    <i name="e_fr_energy">     31.58437031 </i>
    <i name="e_wo_entrp">     31.58642201 </i>
    <i name="e_0_energy">     31.58539616 </i>
   </energy>
  </scstep>
  <scstep>
   <time name="dav">    0.26    0.27</time>
   <time name="total">    0.26    0.27</time>
   <energy>
    <i name="e_fr_energy">     -4.22069537 </i>
    <i name="e_wo_entrp">     -4.21490286 </i>
    <i name="e_0_energy">     -4.21779912 </i>
   </energy>
  </scstep>
  <scstep>
   <time name="dav">    0.27    0.28</time>
   <time name="total">    0.27    0.28</time>
   <energy>
    <i name="e_fr_energy">     -4.70421617 </i>
    <i name="e_wo_entrp">     -4.69232839 </i>
    <i name="e_0_energy">     -4.69827228 </i>
   </energy>
  </scstep>
  <scstep>
   <time name="dav">    0.28    0.28</time>
   <time name="total">    0.28    0.28</time>
   <energy>
    <i name="e_fr_energy">     -4.70659472 </i>
    <i name="e_wo_entrp">     -4.69469762 </i>
    <i name="e_0_energy">     -4.70064617 </i>
   </energy>
  </scstep>
  <scstep>
   <time name="dav">    0.28    0.28</time>
   <time name="total">    0.28    0.29</time>
   <energy>
    <i name="e_fr_energy">     -4.70662193 </i>
    <i name="e_wo_entrp">     -4.69472474 </i>
    <i name="e_0_energy">     -4.70067333 </i>
   </energy>
  </scstep>
  <scstep>
   <time name="dav">    0.26    0.26</time>
   <time name="total">    0.27    0.27</time>
   <energy>
    <i name="e_fr_energy">     -4.47445485 </i>
    <i name="e_wo_entrp">     -4.46499072 </i>
    <i name="e_0_energy">     -4.46972279 </i>
   </energy>
  </scstep>
  <scstep>
   <time name="dav">    0.27    0.27</time>
   <time name="total">    0.28    0.28</time>
   <energy>
    <i name="e_fr_energy">     -4.47439191 </i>
    <i name="e_wo_entrp">     -4.46483456 </i>
    <i name="e_0_energy">     -4.46961323 </i>
   </energy>
  </scstep>
  <scstep>
   <time name="dav">    0.26    0.26</time>
   <time name="total">    0.27    0.27</time>
   <energy>
    <i name="e_fr_energy">     -4.47524696 </i>
    <i name="e_wo_entrp">     -4.46568617 </i>
    <i name="e_0_energy">     -4.47046657 </i>
   </energy>
  </scstep>
  <scstep>
   <time name="dav">    0.21    0.21</time>
   <time name="total">    0.22    0.22</time>
   <energy>
    <i name="alphaZ">     43.05471260 </i>
    <i name="ewald">   -741.26920166 </i>
    <i name="hartreedc">    -99.67184617 </i>
    <i name="XCdc">      1.77715459 </i>
    <i name="pawpsdc">    754.05738636 </i>
    <i name="pawaedc">   -725.96718950 </i>
    <i name="eentropy">     -0.00955582 </i>
    <i name="bandstr">     35.23409676 </i>
    <i name="atom">    728.31920932 </i>
    <i name="e_fr_energy">     -4.47523351 </i>
    <i name="e_wo_entrp">     -4.46567769 </i>
    <i name="e_0_energy">     -4.47045560 </i>
   </energy>
  </scstep>
  <structure>
   <crystal>
    <varray name="basis" >
     <v>       2.72704500       0.00000500       1.57447600 </v>
     <v>       0.90902100       2.57107900       1.57447600 </v>
     <v>       0.00000700       0.00000500       3.14892700 </v>
    </varray>
    <i name="volume">     22.07848137 </i>
    <varray name="rec_basis" >
     <v>       0.36669788      -0.12964795      -0.00000061 </v>
     <v>      -0.00000036       0.38894227      -0.00000062 </v>
     <v>      -0.18335022      -0.12964819       0.31756911 </v>
    </varray>
   </crystal>
   <varray name="positions" >
    <v>       0.00000000       0.00000000       0.00000000 </v>
   </varray>
  </structure>
  <varray name="forces" >
   <v>       0.00000077      -0.00000206      -0.00000148 </v>
  </varray>
  <energy>
   <i name="e_fr_energy">     -4.47523351 </i>
   <i name="e_wo_entrp">     -4.46567769 </i>
   <i name="e_0_energy">     -4.47045560 </i>
  </energy>
  <time name="totalsc">    2.49    2.51</time>
  <eigenvalues>
   <array>
    <dimension dim="1">band</dimension>
    <dimension dim="2">kpoint</dimension>
    <dimension dim="3">spin</dimension>
    <field>eigene</field>
    <field>occ</field>
    <set>
     <set comment="spin 1">
      <set comment="kpoint 1">
       <r>   -1.1478    1.0000 </r>
       <r>    3.4383    1.0000 </r>
       <r>    3.4384    1.0000 </r>
       <r>    3.4384    1.0000 </r>
       <r>    4.5707    1.0000 </r>
       <r>    4.5707    1.0000 </r>
       <r>   20.3350    0.0000 </r>
       <r>   23.2373    0.0000 </r>
       <r>   23.2375    0.0000 </r>
       <r>   23.2376    0.0000 </r>
       <r>   27.3748    0.0000 </r>
       <r>   30.4357    0.0000 </r>
      </set>
      <set comment="kpoint 2">
       <r>   -0.0982    1.0000 </r>
       <r>    3.2499    1.0000 </r>
       <r>    3.6535    1.0000 </r>
       <r>    3.6536    1.0000 </r>
       <r>    4.5717    1.0000 </r>
       <r>    4.5717    1.0000 </r>
       <r>   17.9381    0.0000 </r>
       <r>   21.1971    0.0000 </r>
       <r>   23.7719    0.0000 </r>
       <r>   23.7721    0.0000 </r>
       <r>   25.8186    0.0000 </r>
       <r>   27.4335    0.0000 </r>
      </set>
      <set comment="kpoint 3">
       <r>   -0.0982    1.0000 </r>
       <r>    3.2499    1.0000 </r>
       <r>    3.6535    1.0000 </r>
       <r>    3.6536    1.0000 </r>
       <r>    4.5717    1.0000 </r>
       <r>    4.5717    1.0000 </r>
       <r>   17.9381    0.0000 </r>
       <r>   21.1971    0.0000 </r>
       <r>   23.7719    0.0000 </r>
       <r>   23.7721    0.0000 </r>
       <r>   25.8186    0.0000 </r>
       <r>   27.4335    0.0000 </r>
      </set>
      <set comment="kpoint 4">
       <r>   -0.0982    1.0000 </r>
       <r>    3.2499    1.0000 </r>
       <r>    3.6535    1.0000 </r>
       <r>    3.6536    1.0000 </r>
       <r>    4.5717    1.0000 </r>
       <r>    4.5717    1.0000 </r>
       <r>   17.9381    0.0000 </r>
       <r>   21.1971    0.0000 </r>
       <r>   23.7719    0.0000 </r>
       <r>   23.7721    0.0000 </r>
       <r>   25.8186    0.0000 </r>
       <r>   27.4335    0.0000 </r>
      </set>
      <set comment="kpoint 5">
       <r>   -0.0983    1.0000 </r>
       <r>    3.2499    1.0000 </r>
       <r>    3.6535    1.0000 </r>
       <r>    3.6535    1.0000 </r>
       <r>    4.5717    1.0000 </r>
       <r>    4.5717    1.0000 </r>
       <r>   17.9379    0.0000 </r>
       <r>   21.1971    0.0000 </r>
       <r>   23.7721    0.0000 </r>
       <r>   23.7722    0.0000 </r>
       <r>   25.8186    0.0000 </r>
       <r>   27.4335    0.0000 </r>
      </set>
      <set comment="kpoint 6">
       <r>    1.2302    1.0000 </r>
       <r>    3.4821    1.0000 </r>
       <r>    3.4821    1.0000 </r>
       <r>    4.9078    1.0000 </r>
       <r>    5.2653    0.9999 </r>
       <r>    5.2653    0.9999 </r>
       <r>   11.0698    0.0000 </r>
       <r>   20.0828    0.0000 </r>
       <r>   21.9801    0.0000 </r>
       <r>   21.9802    0.0000 </r>
       <r>   27.6943    0.0000 </r>
       <r>   27.6951    0.0000 </r>
      </set>
      <set comment="kpoint 7">
       <r>    1.2302    1.0000 </r>
       <r>    3.4821    1.0000 </r>
       <r>    3.4821    1.0000 </r>
       <r>    4.9078    1.0000 </r>
       <r>    5.2653    0.9999 </r>
       <r>    5.2653    0.9999 </r>
       <r>   11.0698    0.0000 </r>
       <r>   20.0828    0.0000 </r>
       <r>   21.9801    0.0000 </r>
       <r>   21.9801    0.0000 </r>
       <r>   27.6943    0.0000 </r>
       <r>   27.6963    0.0000 </r>
      </set>
      <set comment="kpoint 8">
       <r>    1.2302    1.0000 </r>
       <r>    3.4821    1.0000 </r>
       <r>    3.4821    1.0000 </r>
       <r>    4.9078    1.0000 </r>
       <r>    5.2653    0.9999 </r>
       <r>    5.2653    0.9999 </r>
       <r>   11.0698    0.0000 </r>
       <r>   20.0828    0.0000 </r>
       <r>   21.9801    0.0000 </r>
       <r>   21.9801    0.0000 </r>
       <r>   27.6942    0.0000 </r>
       <r>   27.6949    0.0000 </r>
      </set>
      <set comment="kpoint 9">
       <r>    1.2302    1.0000 </r>
       <r>    3.4821    1.0000 </r>
       <r>    3.4821    1.0000 </r>
       <r>    4.9078    1.0000 </r>
       <r>    5.2653    0.9999 </r>
       <r>    5.2653    0.9999 </r>
       <r>   11.0696    0.0000 </r>
       <r>   20.0828    0.0000 </r>
       <r>   21.9803    0.0000 </r>
       <r>   21.9803    0.0000 </r>
       <r>   27.6943    0.0000 </r>
       <r>   27.6949    0.0000 </r>
      </set>
      <set comment="kpoint 10">
       <r>    0.2688    1.0000 </r>
       <r>    2.8495    1.0000 </r>
       <r>    4.0134    1.0000 </r>
       <r>    4.0373    1.0000 </r>
       <r>    4.0374    1.0000 </r>
       <r>    4.8476    1.0000 </r>
       <r>   20.6058    0.0000 </r>
       <r>   20.6059    0.0000 </r>
       <r>   21.1383    0.0000 </r>
       <r>   21.5706    0.0000 </r>
       <r>   22.9794    0.0000 </r>
       <r>   28.8979    0.0000 </r>
      </set>
      <set comment="kpoint 11">
       <r>    0.2688    1.0000 </r>
       <r>    2.8495    1.0000 </r>
       <r>    4.0134    1.0000 </r>
       <r>    4.0373    1.0000 </r>
       <r>    4.0374    1.0000 </r>
       <r>    4.8476    1.0000 </r>
       <r>   20.6058    0.0000 </r>
       <r>   20.6060    0.0000 </r>
       <r>   21.1383    0.0000 </r>
       <r>   21.5706    0.0000 </r>
       <r>   22.9794    0.0000 </r>
       <r>   28.8979    0.0000 </r>
      </set>
      <set comment="kpoint 12">
       <r>    0.2688    1.0000 </r>
       <r>    2.8495    1.0000 </r>
       <r>    4.0134    1.0000 </r>
       <r>    4.0373    1.0000 </r>
       <r>    4.0374    1.0000 </r>
       <r>    4.8476    1.0000 </r>
       <r>   20.6058    0.0000 </r>
       <r>   20.6059    0.0000 </r>
       <r>   21.1383    0.0000 </r>
       <r>   21.5706    0.0000 </r>
       <r>   22.9794    0.0000 </r>
       <r>   28.8979    0.0000 </r>
      </set>
      <set comment="kpoint 13">
       <r>    1.7326    1.0000 </r>
       <r>    2.8243    1.0000 </r>
       <r>    3.4446    1.0000 </r>
       <r>    4.1540    1.0000 </r>
       <r>    5.3767    0.6905 </r>
       <r>    5.7798    0.0000 </r>
       <r>   13.6818    0.0000 </r>
       <r>   19.0277    0.0000 </r>
       <r>   19.0559    0.0000 </r>
       <r>   21.3772    0.0000 </r>
       <r>   26.1176    0.0000 </r>
       <r>   29.2370    0.0000 </r>
      </set>
      <set comment="kpoint 14">
       <r>    1.7326    1.0000 </r>
       <r>    2.8243    1.0000 </r>
       <r>    3.4446    1.0000 </r>
       <r>    4.1540    1.0000 </r>
       <r>    5.3767    0.6905 </r>
       <r>    5.7798    0.0000 </r>
       <r>   13.6818    0.0000 </r>
       <r>   19.0276    0.0000 </r>
       <r>   19.0559    0.0000 </r>
       <r>   21.3772    0.0000 </r>
       <r>   26.1176    0.0000 </r>
       <r>   29.2370    0.0000 </r>
      </set>
      <set comment="kpoint 15">
       <r>    1.7326    1.0000 </r>
       <r>    2.8243    1.0000 </r>
       <r>    3.4446    1.0000 </r>
       <r>    4.1540    1.0000 </r>
       <r>    5.3767    0.6905 </r>
       <r>    5.7798    0.0000 </r>
       <r>   13.6818    0.0000 </r>
       <r>   19.0277    0.0000 </r>
       <r>   19.0559    0.0000 </r>
       <r>   21.3772    0.0000 </r>
       <r>   26.1176    0.0000 </r>
       <r>   29.2370    0.0000 </r>
      </set>
      <set comment="kpoint 16">
       <r>    1.7326    1.0000 </r>
       <r>    2.8244    1.0000 </r>
       <r>    3.4446    1.0000 </r>
       <r>    4.1541    1.0000 </r>
       <r>    5.3767    0.6904 </r>
       <r>    5.7798    0.0000 </r>
       <r>   13.6817    0.0000 </r>
       <r>   19.0278    0.0000 </r>
       <r>   19.0559    0.0000 </r>
       <r>   21.3773    0.0000 </r>
       <r>   26.1174    0.0000 </r>
       <r>   29.2370    0.0000 </r>
      </set>
      <set comment="kpoint 17">
       <r>    1.7326    1.0000 </r>
       <r>    2.8244    1.0000 </r>
       <r>    3.4446    1.0000 </r>
       <r>    4.1541    1.0000 </r>
       <r>    5.3767    0.6906 </r>
       <r>    5.7798    0.0000 </r>
       <r>   13.6816    0.0000 </r>
       <r>   19.0278    0.0000 </r>
       <r>   19.0560    0.0000 </r>
       <r>   21.3774    0.0000 </r>
       <r>   26.1175    0.0000 </r>
       <r>   29.2371    0.0000 </r>
      </set>
      <set comment="kpoint 18">
       <r>    1.7326    1.0000 </r>
       <r>    2.8243    1.0000 </r>
       <r>    3.4446    1.0000 </r>
       <r>    4.1540    1.0000 </r>
       <r>    5.3767    0.6905 </r>
       <r>    5.7798    0.0000 </r>
       <r>   13.6818    0.0000 </r>
       <r>   19.0277    0.0000 </r>
       <r>   19.0559    0.0000 </r>
       <r>   21.3772    0.0000 </r>
       <r>   26.1176    0.0000 </r>
       <r>   29.2371    0.0000 </r>
      </set>
      <set comment="kpoint 19">
       <r>    1.7326    1.0000 </r>
       <r>    2.8244    1.0000 </r>
       <r>    3.4446    1.0000 </r>
       <r>    4.1541    1.0000 </r>
       <r>    5.3767    0.6904 </r>
       <r>    5.7798    0.0000 </r>
       <r>   13.6817    0.0000 </r>
       <r>   19.0278    0.0000 </r>
       <r>   19.0559    0.0000 </r>
       <r>   21.3774    0.0000 </r>
       <r>   26.1173    0.0000 </r>
       <r>   29.2370    0.0000 </r>
      </set>
      <set comment="kpoint 20">
       <r>    1.7326    1.0000 </r>
       <r>    2.8244    1.0000 </r>
       <r>    3.4446    1.0000 </r>
       <r>    4.1541    1.0000 </r>
       <r>    5.3767    0.6905 </r>
       <r>    5.7798    0.0000 </r>
       <r>   13.6816    0.0000 </r>
       <r>   19.0278    0.0000 </r>
       <r>   19.0560    0.0000 </r>
       <r>   21.3774    0.0000 </r>
       <r>   26.1175    0.0000 </r>
       <r>   29.2371    0.0000 </r>
      </set>
      <set comment="kpoint 21">
       <r>    1.7326    1.0000 </r>
       <r>    2.8243    1.0000 </r>
       <r>    3.4446    1.0000 </r>
       <r>    4.1540    1.0000 </r>
       <r>    5.3767    0.6905 </r>
       <r>    5.7798    0.0000 </r>
       <r>   13.6818    0.0000 </r>
       <r>   19.0276    0.0000 </r>
       <r>   19.0559    0.0000 </r>
       <r>   21.3772    0.0000 </r>
       <r>   26.1176    0.0000 </r>
       <r>   29.2370    0.0000 </r>
      </set>
      <set comment="kpoint 22">
       <r>    1.7326    1.0000 </r>
       <r>    2.8244    1.0000 </r>
       <r>    3.4446    1.0000 </r>
       <r>    4.1541    1.0000 </r>
       <r>    5.3767    0.6904 </r>
       <r>    5.7798    0.0000 </r>
       <r>   13.6817    0.0000 </r>
       <r>   19.0278    0.0000 </r>
       <r>   19.0559    0.0000 </r>
       <r>   21.3773    0.0000 </r>
       <r>   26.1174    0.0000 </r>
       <r>   29.2373    0.0000 </r>
      </set>
      <set comment="kpoint 23">
       <r>    1.7326    1.0000 </r>
       <r>    2.8244    1.0000 </r>
       <r>    3.4446    1.0000 </r>
       <r>    4.1541    1.0000 </r>
       <r>    5.3767    0.6906 </r>
       <r>    5.7798    0.0000 </r>
       <r>   13.6816    0.0000 </r>
       <r>   19.0279    0.0000 </r>
       <r>   19.0560    0.0000 </r>
       <r>   21.3774    0.0000 </r>
       <r>   26.1175    0.0000 </r>
       <r>   29.2371    0.0000 </r>
      </set>
      <set comment="kpoint 24">
       <r>    1.7326    1.0000 </r>
       <r>    2.8243    1.0000 </r>
       <r>    3.4446    1.0000 </r>
       <r>    4.1540    1.0000 </r>
       <r>    5.3767    0.6905 </r>
       <r>    5.7798    0.0000 </r>
       <r>   13.6818    0.0000 </r>
       <r>   19.0277    0.0000 </r>
       <r>   19.0559    0.0000 </r>
       <r>   21.3772    0.0000 </r>
       <r>   26.1176    0.0000 </r>
       <r>   29.2371    0.0000 </r>
      </set>
      <set comment="kpoint 25">
       <r>    2.0071    1.0000 </r>
       <r>    3.0854    1.0000 </r>
       <r>    3.8732    1.0000 </r>
       <r>    3.9575    1.0000 </r>
       <r>    5.2208    1.0000 </r>
       <r>    8.1006    0.0000 </r>
       <r>    9.9554    0.0000 </r>
       <r>   16.6609    0.0000 </r>
       <r>   20.2628    0.0000 </r>
       <r>   21.0150    0.0000 </r>
       <r>   28.2507    0.0000 </r>
       <r>   28.9464    0.0000 </r>
      </set>
      <set comment="kpoint 26">
       <r>    2.0071    1.0000 </r>
       <r>    3.0854    1.0000 </r>
       <r>    3.8732    1.0000 </r>
       <r>    3.9575    1.0000 </r>
       <r>    5.2208    1.0000 </r>
       <r>    8.1006    0.0000 </r>
       <r>    9.9555    0.0000 </r>
       <r>   16.6608    0.0000 </r>
       <r>   20.2628    0.0000 </r>
       <r>   21.0150    0.0000 </r>
       <r>   28.2507    0.0000 </r>
       <r>   28.9464    0.0000 </r>
      </set>
      <set comment="kpoint 27">
       <r>    2.0071    1.0000 </r>
       <r>    3.0854    1.0000 </r>
       <r>    3.8732    1.0000 </r>
       <r>    3.9575    1.0000 </r>
       <r>    5.2208    1.0000 </r>
       <r>    8.1006    0.0000 </r>
       <r>    9.9555    0.0000 </r>
       <r>   16.6608    0.0000 </r>
       <r>   20.2628    0.0000 </r>
       <r>   21.0150    0.0000 </r>
       <r>   28.2507    0.0000 </r>
       <r>   28.9464    0.0000 </r>
      </set>
      <set comment="kpoint 28">
       <r>    2.0071    1.0000 </r>
       <r>    3.0854    1.0000 </r>
       <r>    3.8732    1.0000 </r>
       <r>    3.9575    1.0000 </r>
       <r>    5.2208    1.0000 </r>
       <r>    8.1005    0.0000 </r>
       <r>    9.9555    0.0000 </r>
       <r>   16.6607    0.0000 </r>
       <r>   20.2629    0.0000 </r>
       <r>   21.0151    0.0000 </r>
       <r>   28.2507    0.0000 </r>
       <r>   28.9465    0.0000 </r>
      </set>
      <set comment="kpoint 29">
       <r>    2.0071    1.0000 </r>
       <r>    3.0854    1.0000 </r>
       <r>    3.8732    1.0000 </r>
       <r>    3.9575    1.0000 </r>
       <r>    5.2208    1.0000 </r>
       <r>    8.1005    0.0000 </r>
       <r>    9.9554    0.0000 </r>
       <r>   16.6609    0.0000 </r>
       <r>   20.2630    0.0000 </r>
       <r>   21.0151    0.0000 </r>
       <r>   28.2507    0.0000 </r>
       <r>   28.9465    0.0000 </r>
      </set>
      <set comment="kpoint 30">
       <r>    2.0071    1.0000 </r>
       <r>    3.0854    1.0000 </r>
       <r>    3.8732    1.0000 </r>
       <r>    3.9575    1.0000 </r>
       <r>    5.2208    1.0000 </r>
       <r>    8.1006    0.0000 </r>
       <r>    9.9555    0.0000 </r>
       <r>   16.6608    0.0000 </r>
       <r>   20.2628    0.0000 </r>
       <r>   21.0150    0.0000 </r>
       <r>   28.2507    0.0000 </r>
       <r>   28.9464    0.0000 </r>
      </set>
      <set comment="kpoint 31">
       <r>    2.0071    1.0000 </r>
       <r>    3.0854    1.0000 </r>
       <r>    3.8732    1.0000 </r>
       <r>    3.9575    1.0000 </r>
       <r>    5.2208    1.0000 </r>
       <r>    8.1005    0.0000 </r>
       <r>    9.9555    0.0000 </r>
       <r>   16.6607    0.0000 </r>
       <r>   20.2629    0.0000 </r>
       <r>   21.0151    0.0000 </r>
       <r>   28.2507    0.0000 </r>
       <r>   28.9465    0.0000 </r>
      </set>
      <set comment="kpoint 32">
       <r>    2.0071    1.0000 </r>
       <r>    3.0854    1.0000 </r>
       <r>    3.8732    1.0000 </r>
       <r>    3.9575    1.0000 </r>
       <r>    5.2208    1.0000 </r>
       <r>    8.1005    0.0000 </r>
       <r>    9.9554    0.0000 </r>
       <r>   16.6609    0.0000 </r>
       <r>   20.2630    0.0000 </r>
       <r>   21.0151    0.0000 </r>
       <r>   28.2507    0.0000 </r>
       <r>   28.9465    0.0000 </r>
      </set>
      <set comment="kpoint 33">
       <r>    2.0071    1.0000 </r>
       <r>    3.0854    1.0000 </r>
       <r>    3.8732    1.0000 </r>
       <r>    3.9575    1.0000 </r>
       <r>    5.2208    1.0000 </r>
       <r>    8.1006    0.0000 </r>
       <r>    9.9555    0.0000 </r>
       <r>   16.6608    0.0000 </r>
       <r>   20.2628    0.0000 </r>
       <r>   21.0150    0.0000 </r>
       <r>   28.2507    0.0000 </r>
       <r>   28.9464    0.0000 </r>
      </set>
      <set comment="kpoint 34">
       <r>    2.0071    1.0000 </r>
       <r>    3.0854    1.0000 </r>
       <r>    3.8732    1.0000 </r>
       <r>    3.9575    1.0000 </r>
       <r>    5.2208    1.0000 </r>
       <r>    8.1005    0.0000 </r>
       <r>    9.9555    0.0000 </r>
       <r>   16.6607    0.0000 </r>
       <r>   20.2629    0.0000 </r>
       <r>   21.0151    0.0000 </r>
       <r>   28.2507    0.0000 </r>
       <r>   28.9465    0.0000 </r>
      </set>
      <set comment="kpoint 35">
       <r>    2.0070    1.0000 </r>
       <r>    3.0854    1.0000 </r>
       <r>    3.8732    1.0000 </r>
       <r>    3.9575    1.0000 </r>
       <r>    5.2208    1.0000 </r>
       <r>    8.1005    0.0000 </r>
       <r>    9.9554    0.0000 </r>
       <r>   16.6609    0.0000 </r>
       <r>   20.2630    0.0000 </r>
       <r>   21.0151    0.0000 </r>
       <r>   28.2507    0.0000 </r>
       <r>   28.9466    0.0000 </r>
      </set>
      <set comment="kpoint 36">
       <r>    2.0071    1.0000 </r>
       <r>    3.0854    1.0000 </r>
       <r>    3.8732    1.0000 </r>
       <r>    3.9575    1.0000 </r>
       <r>    5.2208    1.0000 </r>
       <r>    8.1006    0.0000 </r>
       <r>    9.9554    0.0000 </r>
       <r>   16.6608    0.0000 </r>
       <r>   20.2628    0.0000 </r>
       <r>   21.0150    0.0000 </r>
       <r>   28.2507    0.0000 </r>
       <r>   28.9464    0.0000 </r>
      </set>
      <set comment="kpoint 37">
       <r>    1.3561    1.0000 </r>
       <r>    2.9657    1.0000 </r>
       <r>    3.5255    1.0000 </r>
       <r>    4.1167    1.0000 </r>
       <r>    4.2067    1.0000 </r>
       <r>    5.6938    0.0000 </r>
       <r>   15.5905    0.0000 </r>
       <r>   17.3061    0.0000 </r>
       <r>   22.1635    0.0000 </r>
       <r>   24.2868    0.0000 </r>
       <r>   24.5437    0.0000 </r>
       <r>   28.5364    0.0000 </r>
      </set>
      <set comment="kpoint 38">
       <r>    1.3561    1.0000 </r>
       <r>    2.9657    1.0000 </r>
       <r>    3.5255    1.0000 </r>
       <r>    4.1167    1.0000 </r>
       <r>    4.2067    1.0000 </r>
       <r>    5.6938    0.0000 </r>
       <r>   15.5905    0.0000 </r>
       <r>   17.3061    0.0000 </r>
       <r>   22.1635    0.0000 </r>
       <r>   24.2868    0.0000 </r>
       <r>   24.5437    0.0000 </r>
       <r>   28.5364    0.0000 </r>
      </set>
      <set comment="kpoint 39">
       <r>    1.3561    1.0000 </r>
       <r>    2.9657    1.0000 </r>
       <r>    3.5255    1.0000 </r>
       <r>    4.1167    1.0000 </r>
       <r>    4.2067    1.0000 </r>
       <r>    5.6938    0.0000 </r>
       <r>   15.5905    0.0000 </r>
       <r>   17.3061    0.0000 </r>
       <r>   22.1635    0.0000 </r>
       <r>   24.2868    0.0000 </r>
       <r>   24.5437    0.0000 </r>
       <r>   28.5364    0.0000 </r>
      </set>
      <set comment="kpoint 40">
       <r>    1.3560    1.0000 </r>
       <r>    2.9657    1.0000 </r>
       <r>    3.5255    1.0000 </r>
       <r>    4.1168    1.0000 </r>
       <r>    4.2067    1.0000 </r>
       <r>    5.6937    0.0000 </r>
       <r>   15.5905    0.0000 </r>
       <r>   17.3060    0.0000 </r>
       <r>   22.1636    0.0000 </r>
       <r>   24.2869    0.0000 </r>
       <r>   24.5437    0.0000 </r>
       <r>   28.5365    0.0000 </r>
      </set>
      <set comment="kpoint 41">
       <r>    1.3560    1.0000 </r>
       <r>    2.9657    1.0000 </r>
       <r>    3.5255    1.0000 </r>
       <r>    4.1168    1.0000 </r>
       <r>    4.2067    1.0000 </r>
       <r>    5.6937    0.0000 </r>
       <r>   15.5905    0.0000 </r>
       <r>   17.3060    0.0000 </r>
       <r>   22.1636    0.0000 </r>
       <r>   24.2869    0.0000 </r>
       <r>   24.5437    0.0000 </r>
       <r>   28.5365    0.0000 </r>
      </set>
      <set comment="kpoint 42">
       <r>    1.3560    1.0000 </r>
       <r>    2.9657    1.0000 </r>
       <r>    3.5255    1.0000 </r>
       <r>    4.1168    1.0000 </r>
       <r>    4.2067    1.0000 </r>
       <r>    5.6937    0.0000 </r>
       <r>   15.5904    0.0000 </r>
       <r>   17.3060    0.0000 </r>
       <r>   22.1636    0.0000 </r>
       <r>   24.2870    0.0000 </r>
       <r>   24.5437    0.0000 </r>
       <r>   28.5365    0.0000 </r>
      </set>
      <set comment="kpoint 43">
       <r>    1.6982    1.0000 </r>
       <r>    2.0272    1.0000 </r>
       <r>    5.3276    0.9703 </r>
       <r>    5.3575    0.8508 </r>
       <r>    5.3575    0.8508 </r>
       <r>    5.9459    0.0000 </r>
       <r>   13.7403    0.0000 </r>
       <r>   16.2825    0.0000 </r>
       <r>   16.2827    0.0000 </r>
       <r>   21.1529    0.0000 </r>
       <r>   23.2222    0.0000 </r>
       <r>   31.8331    0.0000 </r>
      </set>
      <set comment="kpoint 44">
       <r>    1.6982    1.0000 </r>
       <r>    2.0272    1.0000 </r>
       <r>    5.3276    0.9703 </r>
       <r>    5.3575    0.8508 </r>
       <r>    5.3575    0.8508 </r>
       <r>    5.9459    0.0000 </r>
       <r>   13.7403    0.0000 </r>
       <r>   16.2825    0.0000 </r>
       <r>   16.2827    0.0000 </r>
       <r>   21.1529    0.0000 </r>
       <r>   23.2222    0.0000 </r>
       <r>   31.8331    0.0000 </r>
      </set>
      <set comment="kpoint 45">
       <r>    1.6982    1.0000 </r>
       <r>    2.0272    1.0000 </r>
       <r>    5.3276    0.9703 </r>
       <r>    5.3575    0.8508 </r>
       <r>    5.3575    0.8508 </r>
       <r>    5.9459    0.0000 </r>
       <r>   13.7403    0.0000 </r>
       <r>   16.2825    0.0000 </r>
       <r>   16.2827    0.0000 </r>
       <r>   21.1529    0.0000 </r>
       <r>   23.2222    0.0000 </r>
       <r>   31.8331    0.0000 </r>
      </set>
      <set comment="kpoint 46">
       <r>    1.9793    1.0000 </r>
       <r>    2.3438    1.0000 </r>
       <r>    4.4076    1.0000 </r>
       <r>    4.9739    1.0000 </r>
       <r>    5.4520    0.0511 </r>
       <r>   10.0009    0.0000 </r>
       <r>   10.2310    0.0000 </r>
       <r>   13.4356    0.0000 </r>
       <r>   16.8893    0.0000 </r>
       <r>   22.0407    0.0000 </r>
       <r>   25.8926    0.0000 </r>
       <r>   30.3213    0.0000 </r>
      </set>
      <set comment="kpoint 47">
       <r>    1.9793    1.0000 </r>
       <r>    2.3438    1.0000 </r>
       <r>    4.4076    1.0000 </r>
       <r>    4.9739    1.0000 </r>
       <r>    5.4520    0.0511 </r>
       <r>   10.0009    0.0000 </r>
       <r>   10.2310    0.0000 </r>
       <r>   13.4356    0.0000 </r>
       <r>   16.8893    0.0000 </r>
       <r>   22.0406    0.0000 </r>
       <r>   25.8926    0.0000 </r>
       <r>   30.3213    0.0000 </r>
      </set>
      <set comment="kpoint 48">
       <r>    1.9793    1.0000 </r>
       <r>    2.3438    1.0000 </r>
       <r>    4.4076    1.0000 </r>
       <r>    4.9739    1.0000 </r>
       <r>    5.4520    0.0511 </r>
       <r>   10.0009    0.0000 </r>
       <r>   10.2310    0.0000 </r>
       <r>   13.4356    0.0000 </r>
       <r>   16.8893    0.0000 </r>
       <r>   22.0407    0.0000 </r>
       <r>   25.8926    0.0000 </r>
       <r>   30.3213    0.0000 </r>
      </set>
      <set comment="kpoint 49">
       <r>    1.9793    1.0000 </r>
       <r>    2.3438    1.0000 </r>
       <r>    4.4076    1.0000 </r>
       <r>    4.9740    1.0000 </r>
       <r>    5.4520    0.0511 </r>
       <r>   10.0009    0.0000 </r>
       <r>   10.2309    0.0000 </r>
       <r>   13.4355    0.0000 </r>
       <r>   16.8895    0.0000 </r>
       <r>   22.0408    0.0000 </r>
       <r>   25.8924    0.0000 </r>
       <r>   30.3214    0.0000 </r>
      </set>
      <set comment="kpoint 50">
       <r>    1.9793    1.0000 </r>
       <r>    2.3438    1.0000 </r>
       <r>    4.4076    1.0000 </r>
       <r>    4.9740    1.0000 </r>
       <r>    5.4520    0.0511 </r>
       <r>   10.0009    0.0000 </r>
       <r>   10.2309    0.0000 </r>
       <r>   13.4355    0.0000 </r>
       <r>   16.8895    0.0000 </r>
       <r>   22.0408    0.0000 </r>
       <r>   25.8924    0.0000 </r>
       <r>   30.3214    0.0000 </r>
      </set>
      <set comment="kpoint 51">
       <r>    1.9793    1.0000 </r>
       <r>    2.3438    1.0000 </r>
       <r>    4.4076    1.0000 </r>
       <r>    4.9740    1.0000 </r>
       <r>    5.4520    0.0511 </r>
       <r>   10.0009    0.0000 </r>
       <r>   10.2309    0.0000 </r>
       <r>   13.4355    0.0000 </r>
       <r>   16.8895    0.0000 </r>
       <r>   22.0408    0.0000 </r>
       <r>   25.8924    0.0000 </r>
       <r>   30.3214    0.0000 </r>
      </set>
      <set comment="kpoint 52">
       <r>    2.5448    1.0000 </r>
       <r>    2.7156    1.0000 </r>
       <r>    3.1922    1.0000 </r>
       <r>    4.6695    1.0000 </r>
       <r>    5.3473    0.9077 </r>
       <r>    8.3535    0.0000 </r>
       <r>   12.5390    0.0000 </r>
       <r>   13.8254    0.0000 </r>
       <r>   16.3851    0.0000 </r>
       <r>   24.9868    0.0000 </r>
       <r>   25.6308    0.0000 </r>
       <r>   28.7543    0.0000 </r>
      </set>
      <set comment="kpoint 53">
       <r>    2.5448    1.0000 </r>
       <r>    2.7156    1.0000 </r>
       <r>    3.1922    1.0000 </r>
       <r>    4.6695    1.0000 </r>
       <r>    5.3473    0.9077 </r>
       <r>    8.3535    0.0000 </r>
       <r>   12.5390    0.0000 </r>
       <r>   13.8254    0.0000 </r>
       <r>   16.3851    0.0000 </r>
       <r>   24.9868    0.0000 </r>
       <r>   25.6308    0.0000 </r>
       <r>   28.7543    0.0000 </r>
      </set>
      <set comment="kpoint 54">
       <r>    2.5448    1.0000 </r>
       <r>    2.7156    1.0000 </r>
       <r>    3.1922    1.0000 </r>
       <r>    4.6695    1.0000 </r>
       <r>    5.3473    0.9077 </r>
       <r>    8.3535    0.0000 </r>
       <r>   12.5390    0.0000 </r>
       <r>   13.8254    0.0000 </r>
       <r>   16.3851    0.0000 </r>
       <r>   24.9868    0.0000 </r>
       <r>   25.6308    0.0000 </r>
       <r>   28.7543    0.0000 </r>
      </set>
      <set comment="kpoint 55">
       <r>    2.5448    1.0000 </r>
       <r>    2.7156    1.0000 </r>
       <r>    3.1923    1.0000 </r>
       <r>    4.6694    1.0000 </r>
       <r>    5.3473    0.9077 </r>
       <r>    8.3536    0.0000 </r>
       <r>   12.5389    0.0000 </r>
       <r>   13.8254    0.0000 </r>
       <r>   16.3851    0.0000 </r>
       <r>   24.9867    0.0000 </r>
       <r>   25.6308    0.0000 </r>
       <r>   28.7542    0.0000 </r>
      </set>
      <set comment="kpoint 56">
       <r>    2.5448    1.0000 </r>
       <r>    2.7156    1.0000 </r>
       <r>    3.1922    1.0000 </r>
       <r>    4.6694    1.0000 </r>
       <r>    5.3473    0.9077 </r>
       <r>    8.3535    0.0000 </r>
       <r>   12.5390    0.0000 </r>
       <r>   13.8254    0.0000 </r>
       <r>   16.3851    0.0000 </r>
       <r>   24.9868    0.0000 </r>
       <r>   25.6308    0.0000 </r>
       <r>   28.7543    0.0000 </r>
      </set>
      <set comment="kpoint 57">
       <r>    2.5448    1.0000 </r>
       <r>    2.7156    1.0000 </r>
       <r>    3.1923    1.0000 </r>
       <r>    4.6694    1.0000 </r>
       <r>    5.3473    0.9077 </r>
       <r>    8.3536    0.0000 </r>
       <r>   12.5389    0.0000 </r>
       <r>   13.8254    0.0000 </r>
       <r>   16.3851    0.0000 </r>
       <r>   24.9867    0.0000 </r>
       <r>   25.6308    0.0000 </r>
       <r>   28.7542    0.0000 </r>
      </set>
      <set comment="kpoint 58">
       <r>    2.5448    1.0000 </r>
       <r>    2.7156    1.0000 </r>
       <r>    3.1923    1.0000 </r>
       <r>    4.6694    1.0000 </r>
       <r>    5.3473    0.9077 </r>
       <r>    8.3536    0.0000 </r>
       <r>   12.5389    0.0000 </r>
       <r>   13.8254    0.0000 </r>
       <r>   16.3851    0.0000 </r>
       <r>   24.9867    0.0000 </r>
       <r>   25.6308    0.0000 </r>
       <r>   28.7542    0.0000 </r>
      </set>
      <set comment="kpoint 59">
       <r>    2.5448    1.0000 </r>
       <r>    2.7156    1.0000 </r>
       <r>    3.1923    1.0000 </r>
       <r>    4.6694    1.0000 </r>
       <r>    5.3473    0.9077 </r>
       <r>    8.3536    0.0000 </r>
       <r>   12.5389    0.0000 </r>
       <r>   13.8254    0.0000 </r>
       <r>   16.3851    0.0000 </r>
       <r>   24.9867    0.0000 </r>
       <r>   25.6308    0.0000 </r>
       <r>   28.7542    0.0000 </r>
      </set>
      <set comment="kpoint 60">
       <r>    2.5448    1.0000 </r>
       <r>    2.7156    1.0000 </r>
       <r>    3.1922    1.0000 </r>
       <r>    4.6695    1.0000 </r>
       <r>    5.3473    0.9077 </r>
       <r>    8.3535    0.0000 </r>
       <r>   12.5390    0.0000 </r>
       <r>   13.8254    0.0000 </r>
       <r>   16.3851    0.0000 </r>
       <r>   24.9868    0.0000 </r>
       <r>   25.6308    0.0000 </r>
       <r>   28.7543    0.0000 </r>
      </set>
      <set comment="kpoint 61">
       <r>    2.5448    1.0000 </r>
       <r>    2.7156    1.0000 </r>
       <r>    3.1923    1.0000 </r>
       <r>    4.6694    1.0000 </r>
       <r>    5.3473    0.9077 </r>
       <r>    8.3536    0.0000 </r>
       <r>   12.5389    0.0000 </r>
       <r>   13.8254    0.0000 </r>
       <r>   16.3851    0.0000 </r>
       <r>   24.9867    0.0000 </r>
       <r>   25.6308    0.0000 </r>
       <r>   28.7542    0.0000 </r>
      </set>
      <set comment="kpoint 62">
       <r>    2.5448    1.0000 </r>
       <r>    2.7156    1.0000 </r>
       <r>    3.1923    1.0000 </r>
       <r>    4.6694    1.0000 </r>
       <r>    5.3473    0.9077 </r>
       <r>    8.3536    0.0000 </r>
       <r>   12.5389    0.0000 </r>
       <r>   13.8254    0.0000 </r>
       <r>   16.3851    0.0000 </r>
       <r>   24.9867    0.0000 </r>
       <r>   25.6308    0.0000 </r>
       <r>   28.7542    0.0000 </r>
      </set>
      <set comment="kpoint 63">
       <r>    2.5448    1.0000 </r>
       <r>    2.7156    1.0000 </r>
       <r>    3.1922    1.0000 </r>
       <r>    4.6695    1.0000 </r>
       <r>    5.3473    0.9077 </r>
       <r>    8.3535    0.0000 </r>
       <r>   12.5390    0.0000 </r>
       <r>   13.8254    0.0000 </r>
       <r>   16.3851    0.0000 </r>
       <r>   24.9868    0.0000 </r>
       <r>   25.6308    0.0000 </r>
       <r>   28.7543    0.0000 </r>
      </set>
     </set>
    </set>
   </array>
  </eigenvalues>
  <separator name="orbital magnetization" >
   <v name="MAGDIPOLOUT">      0.00000000      0.00000000      0.00000000</v>
  </separator>
  <dos>
   <i name="efermi">      5.39424378 </i>
   <total>
    <array>
     <dimension dim="1">gridpoints</dimension>
     <dimension dim="2">spin</dimension>
     <field>energy</field>
     <field>total</field>
     <field>integrated</field>
     <set>
      <set comment="spin 1">
       <r>    -2.7969     0.0000     0.0000 </r>
       <r>    -2.6760     0.0000     0.0000 </r>
       <r>    -2.5550     0.0000     0.0000 </r>
       <r>    -2.4341     0.0000     0.0000 </r>
       <r>    -2.3132     0.0000     0.0000 </r>
       <r>    -2.1922     0.0000     0.0000 </r>
       <r>    -2.0713     0.0000     0.0000 </r>
       <r>    -1.9504     0.0000     0.0000 </r>
       <r>    -1.8295     0.0000     0.0000 </r>
       <r>    -1.7085     0.0000     0.0000 </r>
       <r>    -1.5876     0.0000     0.0000 </r>
       <r>    -1.4667     0.0000     0.0000 </r>
       <r>    -1.3457     0.0000     0.0000 </r>
       <r>    -1.2248     0.0020     0.0002 </r>
       <r>    -1.1039     0.1162     0.0143 </r>
       <r>    -0.9829     0.0141     0.0160 </r>
       <r>    -0.8620     0.0000     0.0160 </r>
       <r>    -0.7411     0.0000     0.0160 </r>
       <r>    -0.6201     0.0000     0.0160 </r>
       <r>    -0.4992     0.0000     0.0160 </r>
       <r>    -0.3783     0.0000     0.0160 </r>
       <r>    -0.2574     0.0000     0.0160 </r>
       <r>    -0.1364     0.1483     0.0339 </r>
       <r>    -0.0155     0.9000     0.1428 </r>
       <r>     0.1054     0.0102     0.1440 </r>
       <r>     0.2264     0.0912     0.1550 </r>
       <r>     0.3473     0.6921     0.2387 </r>
       <r>     0.4682     0.0105     0.2400 </r>
       <r>     0.5892     0.0000     0.2400 </r>
       <r>     0.7101     0.0000     0.2400 </r>
       <r>     0.8310     0.0000     0.2400 </r>
       <r>     0.9519     0.0000     0.2400 </r>
       <r>     1.0729     0.0000     0.2400 </r>
       <r>     1.1938     0.1603     0.2594 </r>
       <r>     1.3147     1.0818     0.3902 </r>
       <r>     1.4357     1.3847     0.5577 </r>
       <r>     1.5566     0.0193     0.5600 </r>
       <r>     1.6775     0.4113     0.6097 </r>
       <r>     1.7985     3.4570     1.0278 </r>
       <r>     1.9194     0.1943     1.0513 </r>
       <r>     2.0403     4.5637     1.6032 </r>
       <r>     2.1612     0.8997     1.7120 </r>
       <r>     2.2822     0.0647     1.7198 </r>
       <r>     2.4031     1.4490     1.8951 </r>
       <r>     2.5240     0.9591     2.0110 </r>
       <r>     2.6450     2.3556     2.2959 </r>
       <r>     2.7659     3.0275     2.6620 </r>
       <r>     2.8868     3.8340     3.1257 </r>
       <r>     3.0078     1.6639     3.3269 </r>
       <r>     3.1287     3.0812     3.6995 </r>
       <r>     3.2496     3.7709     4.1555 </r>
       <r>     3.3706     0.7686     4.2484 </r>
       <r>     3.4915     4.7292     4.8203 </r>
       <r>     3.6124     2.7256     5.1500 </r>
       <r>     3.7333     1.8439     5.3729 </r>
       <r>     3.8543     0.9714     5.4904 </r>
       <r>     3.9752     4.5936     6.0459 </r>
       <r>     4.0961     3.7149     6.4952 </r>
       <r>     4.2171     5.0960     7.1114 </r>
       <r>     4.3380     0.7711     7.2047 </r>
       <r>     4.4589     1.4343     7.3781 </r>
       <r>     4.5799     1.5431     7.5647 </r>
       <r>     4.7008     3.5322     7.9919 </r>
       <r>     4.8217     0.7885     8.0872 </r>
       <r>     4.9426     1.7838     8.3030 </r>
       <r>     5.0636     1.4551     8.4789 </r>
       <r>     5.1845     0.5168     8.5414 </r>
       <r>     5.3054     5.2539     9.1768 </r>
       <r>     5.4264     8.2978    10.1802 </r>
       <r>     5.5473     1.5472    10.3673 </r>
       <r>     5.6682     0.3816    10.4135 </r>
       <r>     5.7892     3.1259    10.7915 </r>
       <r>     5.9101     1.3842    10.9589 </r>
       <r>     6.0310     0.6644    11.0392 </r>
       <r>     6.1519     0.0064    11.0400 </r>
       <r>     6.2729     0.0000    11.0400 </r>
       <r>     6.3938     0.0000    11.0400 </r>
       <r>     6.5147     0.0000    11.0400 </r>
       <r>     6.6357     0.0000    11.0400 </r>
       <r>     6.7566     0.0000    11.0400 </r>
       <r>     6.8775     0.0000    11.0400 </r>
       <r>     6.9985     0.0000    11.0400 </r>
       <r>     7.1194     0.0000    11.0400 </r>
       <r>     7.2403     0.0000    11.0400 </r>
       <r>     7.3613     0.0000    11.0400 </r>
       <r>     7.4822     0.0000    11.0400 </r>
       <r>     7.6031     0.0000    11.0400 </r>
       <r>     7.7240     0.0000    11.0400 </r>
       <r>     7.8450     0.0000    11.0400 </r>
       <r>     7.9659     0.0002    11.0400 </r>
       <r>     8.0868     1.1067    11.1739 </r>
       <r>     8.2078     2.0646    11.4235 </r>
       <r>     8.3287     0.7682    11.5164 </r>
       <r>     8.4496     2.4005    11.8067 </r>
       <r>     8.5706     0.0105    11.8080 </r>
       <r>     8.6915     0.0000    11.8080 </r>
       <r>     8.8124     0.0000    11.8080 </r>
       <r>     8.9333     0.0000    11.8080 </r>
       <r>     9.0543     0.0000    11.8080 </r>
       <r>     9.1752     0.0000    11.8080 </r>
       <r>     9.2961     0.0000    11.8080 </r>
       <r>     9.4171     0.0000    11.8080 </r>
       <r>     9.5380     0.0000    11.8080 </r>
       <r>     9.6589     0.0000    11.8080 </r>
       <r>     9.7799     0.0000    11.8080 </r>
       <r>     9.9008     0.1976    11.8319 </r>
       <r>    10.0217     4.0269    12.3189 </r>
       <r>    10.1426     0.5485    12.3852 </r>
       <r>    10.2636     1.2952    12.5418 </r>
       <r>    10.3845     0.2826    12.5760 </r>
       <r>    10.5054     0.0000    12.5760 </r>
       <r>    10.6264     0.0000    12.5760 </r>
       <r>    10.7473     0.0000    12.5760 </r>
       <r>    10.8682     0.0000    12.5760 </r>
       <r>    10.9892     0.0120    12.5775 </r>
       <r>    11.1101     0.9122    12.6878 </r>
       <r>    11.2310     0.1343    12.7040 </r>
       <r>    11.3520     0.0000    12.7040 </r>
       <r>    11.4729     0.0000    12.7040 </r>
       <r>    11.5938     0.0000    12.7040 </r>
       <r>    11.7147     0.0000    12.7040 </r>
       <r>    11.8357     0.0000    12.7040 </r>
       <r>    11.9566     0.0000    12.7040 </r>
       <r>    12.0775     0.0000    12.7040 </r>
       <r>    12.1985     0.0000    12.7040 </r>
       <r>    12.3194     0.0000    12.7040 </r>
       <r>    12.4403     0.0084    12.7050 </r>
       <r>    12.5613     2.3282    12.9866 </r>
       <r>    12.6822     0.8387    13.0880 </r>
       <r>    12.8031     0.0001    13.0880 </r>
       <r>    12.9240     0.0000    13.0880 </r>
       <r>    13.0450     0.0000    13.0880 </r>
       <r>    13.1659     0.0000    13.0880 </r>
       <r>    13.2868     0.0000    13.0880 </r>
       <r>    13.4078     0.3426    13.1294 </r>
       <r>    13.5287     1.2384    13.2792 </r>
       <r>    13.6496     0.5891    13.3504 </r>
       <r>    13.7706     3.4041    13.7621 </r>
       <r>    13.8915     3.0602    14.1322 </r>
       <r>    14.0124     0.0979    14.1440 </r>
       <r>    14.1333     0.0000    14.1440 </r>
       <r>    14.2543     0.0000    14.1440 </r>
       <r>    14.3752     0.0000    14.1440 </r>
       <r>    14.4961     0.0000    14.1440 </r>
       <r>    14.6171     0.0000    14.1440 </r>
       <r>    14.7380     0.0000    14.1440 </r>
       <r>    14.8589     0.0000    14.1440 </r>
       <r>    14.9799     0.0000    14.1440 </r>
       <r>    15.1008     0.0000    14.1440 </r>
       <r>    15.2217     0.0000    14.1440 </r>
       <r>    15.3427     0.0000    14.1440 </r>
       <r>    15.4636     0.0003    14.1440 </r>
       <r>    15.5845     0.6872    14.2271 </r>
       <r>    15.7054     0.8993    14.3359 </r>
       <r>    15.8264     0.0009    14.3360 </r>
       <r>    15.9473     0.0000    14.3360 </r>
       <r>    16.0682     0.0000    14.3360 </r>
       <r>    16.1892     0.0065    14.3368 </r>
       <r>    16.3101     1.2884    14.4926 </r>
       <r>    16.4310     3.1605    14.8748 </r>
       <r>    16.5520     0.3109    14.9124 </r>
       <r>    16.6729     2.0079    15.1552 </r>
       <r>    16.7938     1.1694    15.2966 </r>
       <r>    16.9147     1.2064    15.4425 </r>
       <r>    17.0357     0.3761    15.4880 </r>
       <r>    17.1566     0.0000    15.4880 </r>
       <r>    17.2775     0.3332    15.5283 </r>
       <r>    17.3985     1.2474    15.6791 </r>
       <r>    17.5194     0.0071    15.6800 </r>
       <r>    17.6403     0.0000    15.6800 </r>
       <r>    17.7613     0.0000    15.6800 </r>
       <r>    17.8822     0.0603    15.6873 </r>
       <r>    18.0031     0.9633    15.8038 </r>
       <r>    18.1241     0.0348    15.8080 </r>
       <r>    18.2450     0.0000    15.8080 </r>
       <r>    18.3659     0.0000    15.8080 </r>
       <r>    18.4868     0.0000    15.8080 </r>
       <r>    18.6078     0.0000    15.8080 </r>
       <r>    18.7287     0.0000    15.8080 </r>
       <r>    18.8496     0.0000    15.8080 </r>
       <r>    18.9706     0.1931    15.8314 </r>
       <r>    19.0915     5.5452    16.5019 </r>
       <r>    19.2124     0.6124    16.5760 </r>
       <r>    19.3334     0.0000    16.5760 </r>
       <r>    19.4543     0.0000    16.5760 </r>
       <r>    19.5752     0.0000    16.5760 </r>
       <r>    19.6961     0.0000    16.5760 </r>
       <r>    19.8171     0.0000    16.5760 </r>
       <r>    19.9380     0.0000    16.5760 </r>
       <r>    20.0589     0.2647    16.6080 </r>
       <r>    20.1799     0.8206    16.7072 </r>
       <r>    20.3008     2.7208    17.0363 </r>
       <r>    20.4217     0.5591    17.1039 </r>
       <r>    20.5427     0.0596    17.1111 </r>
       <r>    20.6636     1.4477    17.2862 </r>
       <r>    20.7845     0.0814    17.2960 </r>
       <r>    20.9054     0.0031    17.2964 </r>
       <r>    21.0264     1.9852    17.5364 </r>
       <r>    21.1473     2.0955    17.7898 </r>
       <r>    21.2682     1.7172    17.9975 </r>
       <r>    21.3892     2.0262    18.2425 </r>
       <r>    21.5101     1.2042    18.3881 </r>
       <r>    21.6310     0.7249    18.4758 </r>
       <r>    21.7520     0.0347    18.4800 </r>
       <r>    21.8729     0.0026    18.4803 </r>
       <r>    21.9938     1.5208    18.6642 </r>
       <r>    22.1148     2.2853    18.9406 </r>
       <r>    22.2357     1.4509    19.1160 </r>
       <r>    22.3566     0.0328    19.1200 </r>
       <r>    22.4775     0.0000    19.1200 </r>
       <r>    22.5985     0.0000    19.1200 </r>
       <r>    22.7194     0.0000    19.1200 </r>
       <r>    22.8403     0.0000    19.1200 </r>
       <r>    22.9613     0.2411    19.1492 </r>
       <r>    23.0822     0.5513    19.2158 </r>
       <r>    23.2031     0.3012    19.2522 </r>
       <r>    23.3241     0.8866    19.3595 </r>
       <r>    23.4450     0.0044    19.3600 </r>
       <r>    23.5659     0.0000    19.3600 </r>
       <r>    23.6868     0.0169    19.3620 </r>
       <r>    23.8078     1.7696    19.5760 </r>
       <r>    23.9287     0.3304    19.6160 </r>
       <r>    24.0496     0.0000    19.6160 </r>
       <r>    24.1706     0.0008    19.6161 </r>
       <r>    24.2915     0.8752    19.7219 </r>
       <r>    24.4124     0.7115    19.8080 </r>
       <r>    24.5334     0.6114    19.8819 </r>
       <r>    24.6543     0.9751    19.9998 </r>
       <r>    24.7752     0.0014    20.0000 </r>
       <r>    24.8961     0.0165    20.0020 </r>
       <r>    25.0171     2.5375    20.3089 </r>
       <r>    25.1380     0.6214    20.3840 </r>
       <r>    25.2589     0.0000    20.3840 </r>
       <r>    25.3799     0.0000    20.3840 </r>
       <r>    25.5008     0.0004    20.3840 </r>
       <r>    25.6217     1.2651    20.5370 </r>
       <r>    25.7427     1.9242    20.7697 </r>
       <r>    25.8636     1.2649    20.9227 </r>
       <r>    25.9845     1.3599    21.0871 </r>
       <r>    26.1055     1.1709    21.2287 </r>
       <r>    26.2264     2.0083    21.4716 </r>
       <r>    26.3473     0.0033    21.4720 </r>
       <r>    26.4682     0.0000    21.4720 </r>
       <r>    26.5892     0.0000    21.4720 </r>
       <r>    26.7101     0.0000    21.4720 </r>
       <r>    26.8310     0.0000    21.4720 </r>
       <r>    26.9520     0.0000    21.4720 </r>
       <r>    27.0729     0.0000    21.4720 </r>
       <r>    27.1938     0.0000    21.4720 </r>
       <r>    27.3148     0.0063    21.4728 </r>
       <r>    27.4357     0.6758    21.5545 </r>
       <r>    27.5566     0.5085    21.6160 </r>
       <r>    27.6775     0.6628    21.6961 </r>
       <r>    27.7985     1.4507    21.8716 </r>
       <r>    27.9194     0.0036    21.8720 </r>
       <r>    28.0403     0.0000    21.8720 </r>
       <r>    28.1613     0.0182    21.8742 </r>
       <r>    28.2822     2.5655    22.1844 </r>
       <r>    28.4031     0.5919    22.2560 </r>
       <r>    28.5241     0.5756    22.3256 </r>
       <r>    28.6450     1.0134    22.4482 </r>
       <r>    28.7659     1.9967    22.6896 </r>
       <r>    28.8868     1.6219    22.8858 </r>
       <r>    29.0078     3.3923    23.2960 </r>
       <r>    29.1287     0.1357    23.3124 </r>
       <r>    29.2496     2.0249    23.5573 </r>
       <r>    29.3706     1.1468    23.6960 </r>
       <r>    29.4915     0.0003    23.6960 </r>
       <r>    29.6124     0.0000    23.6960 </r>
       <r>    29.7334     0.0000    23.6960 </r>
       <r>    29.8543     0.0000    23.6960 </r>
       <r>    29.9752     0.0000    23.6960 </r>
       <r>    30.0962     0.0000    23.6960 </r>
       <r>    30.2171     0.0025    23.6963 </r>
       <r>    30.3380     1.0792    23.8268 </r>
       <r>    30.4589     0.6043    23.8999 </r>
       <r>    30.5799     0.0339    23.9040 </r>
       <r>    30.7008     0.0000    23.9040 </r>
       <r>    30.8217     0.0000    23.9040 </r>
       <r>    30.9427     0.0000    23.9040 </r>
       <r>    31.0636     0.0000    23.9040 </r>
       <r>    31.1845     0.0000    23.9040 </r>
       <r>    31.3055     0.0000    23.9040 </r>
       <r>    31.4264     0.0000    23.9040 </r>
       <r>    31.5473     0.0000    23.9040 </r>
       <r>    31.6682     0.0000    23.9040 </r>
       <r>    31.7892     0.0848    23.9143 </r>
       <r>    31.9101     0.6974    23.9986 </r>
       <r>    32.0310     0.0117    24.0000 </r>
       <r>    32.1520     0.0000    24.0000 </r>
       <r>    32.2729     0.0000    24.0000 </r>
       <r>    32.3938     0.0000    24.0000 </r>
       <r>    32.5148     0.0000    24.0000 </r>
       <r>    32.6357     0.0000    24.0000 </r>
       <r>    32.7566     0.0000    24.0000 </r>
       <r>    32.8775     0.0000    24.0000 </r>
       <r>    32.9985     0.0000    24.0000 </r>
       <r>    33.1194     0.0000    24.0000 </r>
       <r>    33.2403     0.0000    24.0000 </r>
       <r>    33.3613     0.0000    24.0000 </r>
       <r>    33.4822     0.0000    24.0000 </r>
      </set>
     </set>
    </array>
   </total>
   <partial>
    <array>
     <dimension dim="1">gridpoints</dimension>
     <dimension dim="2">spin</dimension>
     <dimension dim="3">ion</dimension>
     <field>energy</field>
     <field>    s</field>
     <field>   py</field>
     <field>   pz</field>
     <field>   px</field>
     <field>  dxy</field>
     <field>  dyz</field>
     <field>  dz2</field>
     <field>  dxz</field>
     <field>x2-y2</field>
     <set>
      <set comment="ion 1">
       <set comment="spin 1">
        <r>    -2.7969     0.0000     0.0000     0.0000     0.0000     0.0000     0.0000     0.0000     0.0000     0.0000 </r>
        <r>    -2.6760     0.0000     0.0000     0.0000     0.0000     0.0000     0.0000     0.0000     0.0000     0.0000 </r>
        <r>    -2.5550     0.0000     0.0000     0.0000     0.0000     0.0000     0.0000     0.0000     0.0000     0.0000 </r>
        <r>    -2.4341     0.0000     0.0000     0.0000     0.0000     0.0000     0.0000     0.0000     0.0000     0.0000 </r>
        <r>    -2.3132     0.0000     0.0000     0.0000     0.0000     0.0000     0.0000     0.0000     0.0000     0.0000 </r>
        <r>    -2.1922     0.0000     0.0000     0.0000     0.0000     0.0000     0.0000     0.0000     0.0000     0.0000 </r>
        <r>    -2.0713     0.0000     0.0000     0.0000     0.0000     0.0000     0.0000     0.0000     0.0000     0.0000 </r>
        <r>    -1.9504     0.0000     0.0000     0.0000     0.0000     0.0000     0.0000     0.0000     0.0000     0.0000 </r>
        <r>    -1.8295     0.0000     0.0000     0.0000     0.0000     0.0000     0.0000     0.0000     0.0000     0.0000 </r>
        <r>    -1.7085     0.0000     0.0000     0.0000     0.0000     0.0000     0.0000     0.0000     0.0000     0.0000 </r>
        <r>    -1.5876     0.0000     0.0000     0.0000     0.0000     0.0000     0.0000     0.0000     0.0000     0.0000 </r>
        <r>    -1.4667     0.0000     0.0000     0.0000     0.0000     0.0000     0.0000     0.0000     0.0000     0.0000 </r>
        <r>    -1.3457     0.0000     0.0000     0.0000     0.0000     0.0000     0.0000     0.0000     0.0000     0.0000 </r>
        <r>    -1.2248     0.0011     0.0000     0.0000     0.0000     0.0000     0.0000     0.0000     0.0000     0.0000 </r>
        <r>    -1.1039     0.0666     0.0000     0.0000     0.0000     0.0000     0.0000     0.0000     0.0000     0.0000 </r>
        <r>    -0.9829     0.0081     0.0000     0.0000     0.0000     0.0000     0.0000     0.0000     0.0000     0.0000 </r>
        <r>    -0.8620     0.0000     0.0000     0.0000     0.0000     0.0000     0.0000     0.0000     0.0000     0.0000 </r>
        <r>    -0.7411     0.0000     0.0000     0.0000     0.0000     0.0000     0.0000     0.0000     0.0000     0.0000 </r>
        <r>    -0.6201     0.0000     0.0000     0.0000     0.0000     0.0000     0.0000     0.0000     0.0000     0.0000 </r>
        <r>    -0.4992     0.0000     0.0000     0.0000     0.0000     0.0000     0.0000     0.0000     0.0000     0.0000 </r>
        <r>    -0.3783     0.0000     0.0000     0.0000     0.0000     0.0000     0.0000     0.0000     0.0000     0.0000 </r>
        <r>    -0.2574     0.0000     0.0000     0.0000     0.0000     0.0000     0.0000     0.0000     0.0000     0.0000 </r>
        <r>    -0.1364     0.0765     0.0019     0.0019     0.0019     0.0005     0.0005     0.0010     0.0009     0.0012 </r>
        <r>    -0.0155     0.4646     0.0115     0.0115     0.0115     0.0027     0.0027     0.0062     0.0055     0.0075 </r>
        <r>     0.1054     0.0053     0.0001     0.0001     0.0001     0.0000     0.0000     0.0001     0.0001     0.0001 </r>
        <r>     0.2264     0.0451     0.0017     0.0017     0.0017     0.0009     0.0009     0.0003     0.0004     0.0001 </r>
        <r>     0.3473     0.3423     0.0130     0.0130     0.0130     0.0066     0.0066     0.0025     0.0033     0.0008 </r>
        <r>     0.4682     0.0052     0.0002     0.0002     0.0002     0.0001     0.0001     0.0000     0.0001     0.0000 </r>
        <r>     0.5892     0.0000     0.0000     0.0000     0.0000     0.0000     0.0000     0.0000     0.0000     0.0000 </r>
        <r>     0.7101     0.0000     0.0000     0.0000     0.0000     0.0000     0.0000     0.0000     0.0000     0.0000 </r>
        <r>     0.8310     0.0000     0.0000     0.0000     0.0000     0.0000     0.0000     0.0000     0.0000     0.0000 </r>
        <r>     0.9519     0.0000     0.0000     0.0000     0.0000     0.0000     0.0000     0.0000     0.0000     0.0000 </r>
        <r>     1.0729     0.0000     0.0000     0.0000     0.0000     0.0000     0.0000     0.0000     0.0000     0.0000 </r>
        <r>     1.1938     0.0383     0.0006     0.0006     0.0006     0.0088     0.0088     0.0198     0.0176     0.0242 </r>
        <r>     1.3147     0.2888     0.0084     0.0084     0.0084     0.0523     0.0523     0.1167     0.1038     0.1425 </r>
        <r>     1.4357     0.5478     0.0367     0.0367     0.0367     0.0249     0.0249     0.0498     0.0448     0.0598 </r>
        <r>     1.5566     0.0077     0.0005     0.0005     0.0005     0.0003     0.0003     0.0007     0.0006     0.0008 </r>
        <r>     1.6775     0.0680     0.0043     0.0043     0.0043     0.0628     0.0628     0.0344     0.0401     0.0230 </r>
        <r>     1.7985     0.7552     0.0525     0.0525     0.0525     0.3461     0.3461     0.2951     0.3053     0.2747 </r>
        <r>     1.9194     0.0298     0.0019     0.0019     0.0019     0.0237     0.0237     0.0217     0.0221     0.0210 </r>
        <r>     2.0403     0.3974     0.0209     0.0209     0.0209     0.5268     0.5268     0.7164     0.6785     0.7923 </r>
        <r>     2.1612     0.0742     0.0044     0.0044     0.0044     0.0812     0.0812     0.1570     0.1418     0.1873 </r>
        <r>     2.2822     0.0001     0.0007     0.0007     0.0007     0.0094     0.0094     0.0108     0.0105     0.0113 </r>
        <r>     2.4031     0.0033     0.0153     0.0153     0.0153     0.2108     0.2108     0.2415     0.2353     0.2538 </r>
        <r>     2.5240     0.0269     0.0120     0.0120     0.0120     0.2251     0.2251     0.0937     0.1199     0.0411 </r>
        <r>     2.6450     0.0689     0.0296     0.0296     0.0296     0.5594     0.5594     0.2247     0.2916     0.0908 </r>
        <r>     2.7659     0.0044     0.0345     0.0345     0.0345     0.2822     0.2822     0.6146     0.5481     0.7475 </r>
        <r>     2.8868     0.0782     0.0450     0.0450     0.0450     0.4468     0.4468     0.6890     0.6406     0.7859 </r>
        <r>     3.0078     0.0034     0.0135     0.0135     0.0135     0.1668     0.1668     0.3447     0.3091     0.4159 </r>
        <r>     3.1287     0.0103     0.0202     0.0202     0.0202     0.6703     0.6703     0.4326     0.4801     0.3375 </r>
        <r>     3.2496     0.1714     0.0508     0.0508     0.0508     0.4209     0.4209     0.6587     0.6112     0.7538 </r>
        <r>     3.3706     0.0167     0.0065     0.0065     0.0065     0.0789     0.0789     0.1542     0.1392     0.1843 </r>
[...]
       </set>
       <set comment="band 5">
        <r>  0.0000  0.0015  0.0022  0.0007  0.0182  0.1544  0.0285  0.3088  0.4545 </r>
       </set>
       <set comment="band 6">
        <r>  0.3299  0.0178  0.0053  0.0989  0.0135  0.0318  0.0205  0.0935  0.1724 </r>
       </set>
       <set comment="band 7">
        <r>  0.2924  0.0071  0.0459  0.2401  0.0010  0.0319  0.0011  0.0462  0.0077 </r>
       </set>
       <set comment="band 8">
        <r>  0.0000  0.1564  0.2346  0.0782  0.0534  0.0069  0.1133  0.0138  0.0050 </r>
       </set>
       <set comment="band 9">
        <r>  0.0133  0.2147  0.0982  0.0127  0.1775  0.0391  0.0525  0.0011  0.0000 </r>
       </set>
       <set comment="band 10">
        <r>  0.0160  0.1470  0.1263  0.0054  0.0261  0.0128  0.0060  0.0026  0.0031 </r>
       </set>
       <set comment="band 11">
        <r>  0.0000  0.0092  0.0138  0.0046  0.0615  0.0004  0.2279  0.0009  0.0158 </r>
       </set>
       <set comment="band 12">
        <r>  0.0884  0.0100  0.0149  0.0049  0.0391  0.1532  0.0301  0.0014  0.1168 </r>
       </set>
      </set>
      <set comment="kpoint 53">
       <set comment="band 1">
        <r>  0.0302  0.0239  0.0051  0.0089  0.0245  0.4937  0.0113  0.1884  0.0120 </r>
       </set>
       <set comment="band 2">
        <r>  0.0000  0.0113  0.0169  0.0056  0.0186  0.1327  0.0184  0.2654  0.3856 </r>
       </set>
       <set comment="band 3">
        <r>  0.0574  0.0155  0.0234  0.0078  0.0022  0.0193  0.0077  0.3585  0.3447 </r>
       </set>
       <set comment="band 4">
        <r>  0.0024  0.0097  0.0070  0.0000  0.6327  0.0544  0.2082  0.0004  0.0147 </r>
       </set>
       <set comment="band 5">
        <r>  0.0000  0.0015  0.0022  0.0007  0.2497  0.0063  0.6948  0.0127  0.0009 </r>
       </set>
       <set comment="band 6">
        <r>  0.3299  0.0635  0.0557  0.0027  0.0005  0.1754  0.0034  0.0184  0.1341 </r>
       </set>
       <set comment="band 7">
        <r>  0.2924  0.1883  0.1006  0.0041  0.0351  0.0399  0.0100  0.0028  0.0001 </r>
       </set>
       <set comment="band 8">
        <r>  0.0000  0.1564  0.2346  0.0782  0.0000  0.0252  0.0311  0.0504  0.0859 </r>
       </set>
       <set comment="band 9">
        <r>  0.0133  0.0023  0.0646  0.2586  0.0179  0.0902  0.0028  0.1488  0.0106 </r>
       </set>
       <set comment="band 10">
        <r>  0.0160  0.0388  0.0131  0.2269  0.0029  0.0054  0.0001  0.0333  0.0088 </r>
       </set>
       <set comment="band 11">
        <r>  0.0000  0.0092  0.0139  0.0046  0.0237  0.0506  0.0019  0.1013  0.1289 </r>
       </set>
       <set comment="band 12">
        <r>  0.0884  0.0099  0.0000  0.0199  0.0713  0.0737  0.0466  0.0149  0.1341 </r>
       </set>
      </set>
      <set comment="kpoint 54">
       <set comment="band 1">
        <r>  0.0302  0.0014  0.0358  0.0007  0.2134  0.2370  0.1344  0.1185  0.0267 </r>
       </set>
       <set comment="band 2">
        <r>  0.0000  0.0113  0.0000  0.0225  0.0301  0.1834  0.0000  0.3667  0.2406 </r>
       </set>
       <set comment="band 3">
        <r>  0.0574  0.0156  0.0233  0.0078  0.3785  0.0008  0.3052  0.0004  0.0473 </r>
       </set>
       <set comment="band 4">
        <r>  0.0024  0.0015  0.0146  0.0007  0.1589  0.3275  0.2404  0.1638  0.0199 </r>
       </set>
       <set comment="band 5">
        <r>  0.0000  0.0015  0.0000  0.0029  0.0744  0.0982  0.0000  0.1964  0.5955 </r>
       </set>
       <set comment="band 6">
        <r>  0.3299  0.0178  0.0953  0.0089  0.0093  0.0361  0.2673  0.0180  0.0012 </r>
       </set>
       <set comment="band 7">
        <r>  0.2924  0.0071  0.2825  0.0035  0.0290  0.0039  0.0494  0.0019  0.0036 </r>
       </set>
       <set comment="band 8">
        <r>  0.0000  0.1564  0.0000  0.3128  0.0019  0.0585  0.0000  0.1169  0.0152 </r>
       </set>
       <set comment="band 9">
        <r>  0.0133  0.2147  0.0035  0.1074  0.1458  0.0708  0.0000  0.0354  0.0182 </r>
       </set>
       <set comment="band 10">
        <r>  0.0160  0.1471  0.0581  0.0735  0.0320  0.0069  0.0042  0.0035  0.0040 </r>
       </set>
       <set comment="band 11">
        <r>  0.0000  0.0092  0.0000  0.0185  0.0201  0.0417  0.0000  0.0835  0.1610 </r>
       </set>
       <set comment="band 12">
        <r>  0.0883  0.0100  0.0148  0.0050  0.0576  0.1347  0.0737  0.0674  0.0072 </r>
       </set>
      </set>
      <set comment="kpoint 55">
       <set comment="band 1">
        <r>  0.0302  0.0014  0.0138  0.0227  0.4259  0.0245  0.1681  0.0301  0.0813 </r>
       </set>
       <set comment="band 2">
        <r>  0.0000  0.0113  0.0169  0.0056  0.2093  0.0041  0.5972  0.0082  0.0020 </r>
       </set>
       <set comment="band 3">
        <r>  0.0574  0.0156  0.0000  0.0311  0.0797  0.2996  0.0032  0.0960  0.2537 </r>
       </set>
       <set comment="band 4">
        <r>  0.0024  0.0015  0.0014  0.0140  0.0878  0.3986  0.0227  0.3983  0.0030 </r>
       </set>
       <set comment="band 5">
        <r>  0.0000  0.0015  0.0022  0.0007  0.0182  0.1544  0.0285  0.3088  0.4545 </r>
       </set>
       <set comment="band 6">
        <r>  0.3299  0.0178  0.0053  0.0989  0.0135  0.0318  0.0205  0.0935  0.1724 </r>
       </set>
       <set comment="band 7">
        <r>  0.2925  0.0071  0.0459  0.2401  0.0010  0.0319  0.0011  0.0462  0.0077 </r>
       </set>
       <set comment="band 8">
        <r>  0.0000  0.1564  0.2346  0.0782  0.0535  0.0069  0.1133  0.0138  0.0050 </r>
       </set>
       <set comment="band 9">
        <r>  0.0133  0.2147  0.0982  0.0127  0.1775  0.0391  0.0525  0.0011  0.0000 </r>
       </set>
       <set comment="band 10">
        <r>  0.0160  0.1470  0.1263  0.0054  0.0261  0.0128  0.0060  0.0026  0.0031 </r>
       </set>
       <set comment="band 11">
        <r>  0.0000  0.0092  0.0138  0.0046  0.0615  0.0004  0.2279  0.0009  0.0158 </r>
       </set>
       <set comment="band 12">
        <r>  0.0884  0.0100  0.0149  0.0049  0.0391  0.1532  0.0301  0.0014  0.1168 </r>
       </set>
      </set>
      <set comment="kpoint 56">
       <set comment="band 1">
        <r>  0.0302  0.0014  0.0051  0.0313  0.0363  0.4140  0.0113  0.2681  0.0002 </r>
       </set>
       <set comment="band 2">
        <r>  0.0000  0.0113  0.0169  0.0056  0.0807  0.1327  0.0184  0.2654  0.3235 </r>
       </set>
       <set comment="band 3">
        <r>  0.0574  0.0156  0.0234  0.0077  0.1108  0.2686  0.0077  0.1092  0.2360 </r>
       </set>
       <set comment="band 4">
        <r>  0.0024  0.0015  0.0070  0.0083  0.4829  0.0035  0.2082  0.0513  0.1645 </r>
       </set>
       <set comment="band 5">
        <r>  0.0000  0.0015  0.0022  0.0007  0.1663  0.0063  0.6948  0.0127  0.0843 </r>
       </set>
       <set comment="band 6">
        <r>  0.3299  0.0178  0.0557  0.0485  0.0452  0.0001  0.0034  0.1938  0.0893 </r>
       </set>
       <set comment="band 7">
        <r>  0.2924  0.0071  0.1006  0.1854  0.0193  0.0135  0.0100  0.0292  0.0158 </r>
       </set>
       <set comment="band 8">
        <r>  0.0000  0.1564  0.2346  0.0782  0.0352  0.0252  0.0311  0.0504  0.0507 </r>
       </set>
       <set comment="band 9">
        <r>  0.0133  0.2147  0.0646  0.0462  0.0016  0.2150  0.0028  0.0239  0.0269 </r>
       </set>
       <set comment="band 10">
        <r>  0.0160  0.1471  0.0131  0.1186  0.0003  0.0386  0.0001  0.0001  0.0115 </r>
       </set>
       <set comment="band 11">
        <r>  0.0000  0.0092  0.0139  0.0046  0.0112  0.0506  0.0019  0.1013  0.1413 </r>
       </set>
       <set comment="band 12">
        <r>  0.0884  0.0100  0.0000  0.0198  0.1918  0.0006  0.0466  0.0880  0.0137 </r>
       </set>
      </set>
      <set comment="kpoint 57">
       <set comment="band 1">
        <r>  0.0302  0.0239  0.0021  0.0119  0.2812  0.2370  0.0581  0.1185  0.0351 </r>
       </set>
       <set comment="band 2">
        <r>  0.0000  0.0113  0.0000  0.0225  0.0611  0.0902  0.0000  0.1804  0.4890 </r>
       </set>
       <set comment="band 3">
        <r>  0.0574  0.0155  0.0234  0.0078  0.0206  0.0008  0.7079  0.0004  0.0026 </r>
       </set>
       <set comment="band 4">
        <r>  0.0024  0.0097  0.0022  0.0049  0.3596  0.3275  0.0146  0.1638  0.0449 </r>
       </set>
       <set comment="band 5">
        <r>  0.0000  0.0015  0.0000  0.0029  0.0327  0.2233  0.0000  0.4466  0.2618 </r>
       </set>
       <set comment="band 6">
        <r>  0.3299  0.0635  0.0266  0.0318  0.1399  0.0361  0.1204  0.0180  0.0175 </r>
       </set>
       <set comment="band 7">
        <r>  0.2925  0.1884  0.0106  0.0942  0.0711  0.0039  0.0020  0.0019  0.0089 </r>
       </set>
       <set comment="band 8">
        <r>  0.0000  0.1564  0.0000  0.3128  0.0195  0.0057  0.0000  0.0114  0.1559 </r>
       </set>
       <set comment="band 9">
        <r>  0.0133  0.0023  0.3221  0.0012  0.0373  0.0708  0.1221  0.0354  0.0047 </r>
       </set>
       <set comment="band 10">
        <r>  0.0160  0.0388  0.2206  0.0194  0.0013  0.0069  0.0387  0.0035  0.0002 </r>
       </set>
       <set comment="band 11">
        <r>  0.0000  0.0092  0.0000  0.0185  0.0139  0.0604  0.0000  0.1208  0.1113 </r>
       </set>
       <set comment="band 12">
        <r>  0.0884  0.0099  0.0150  0.0049  0.0103  0.1347  0.1269  0.0674  0.0013 </r>
       </set>
      </set>
      <set comment="kpoint 58">
       <set comment="band 1">
        <r>  0.0302  0.0239  0.0138  0.0002  0.4716  0.0466  0.1681  0.0081  0.0355 </r>
       </set>
       <set comment="band 2">
        <r>  0.0000  0.0113  0.0169  0.0056  0.1472  0.0041  0.5972  0.0082  0.0640 </r>
       </set>
       <set comment="band 3">
        <r>  0.0574  0.0155  0.0000  0.0312  0.0094  0.0120  0.0032  0.3836  0.3240 </r>
       </set>
       <set comment="band 4">
        <r>  0.0024  0.0097  0.0014  0.0057  0.0383  0.6488  0.0227  0.1481  0.0525 </r>
       </set>
       <set comment="band 5">
        <r>  0.0000  0.0015  0.0022  0.0007  0.1016  0.1544  0.0285  0.3088  0.3711 </r>
       </set>
       <set comment="band 6">
        <r>  0.3299  0.0635  0.0053  0.0531  0.1236  0.0524  0.0205  0.0730  0.0624 </r>
       </set>
       <set comment="band 7">
        <r>  0.2925  0.1884  0.0459  0.0588  0.0063  0.0687  0.0011  0.0094  0.0024 </r>
       </set>
       <set comment="band 8">
        <r>  0.0000  0.1564  0.2346  0.0782  0.0183  0.0069  0.1133  0.0138  0.0402 </r>
       </set>
       <set comment="band 9">
        <r>  0.0133  0.0023  0.0982  0.2251  0.1069  0.0012  0.0525  0.0390  0.0706 </r>
       </set>
       <set comment="band 10">
        <r>  0.0160  0.0388  0.1263  0.1136  0.0082  0.0001  0.0060  0.0153  0.0211 </r>
       </set>
       <set comment="band 11">
        <r>  0.0000  0.0092  0.0138  0.0046  0.0739  0.0004  0.2279  0.0009  0.0034 </r>
       </set>
       <set comment="band 12">
        <r>  0.0884  0.0099  0.0149  0.0050  0.1359  0.0091  0.0301  0.1455  0.0200 </r>
       </set>
      </set>
      <set comment="kpoint 59">
       <set comment="band 1">
        <r>  0.0302  0.0014  0.0051  0.0313  0.0363  0.4141  0.0113  0.2681  0.0002 </r>
       </set>
       <set comment="band 2">
        <r>  0.0000  0.0113  0.0169  0.0056  0.0807  0.1326  0.0184  0.2654  0.3235 </r>
       </set>
       <set comment="band 3">
        <r>  0.0574  0.0156  0.0234  0.0077  0.1108  0.2686  0.0077  0.1092  0.2360 </r>
       </set>
       <set comment="band 4">
        <r>  0.0024  0.0015  0.0070  0.0083  0.4829  0.0035  0.2082  0.0513  0.1645 </r>
       </set>
       <set comment="band 5">
        <r>  0.0000  0.0015  0.0022  0.0007  0.1663  0.0063  0.6948  0.0127  0.0843 </r>
       </set>
       <set comment="band 6">
        <r>  0.3299  0.0178  0.0557  0.0485  0.0452  0.0001  0.0034  0.1937  0.0893 </r>
       </set>
       <set comment="band 7">
        <r>  0.2925  0.0071  0.1006  0.1855  0.0194  0.0135  0.0100  0.0292  0.0158 </r>
       </set>
       <set comment="band 8">
        <r>  0.0000  0.1564  0.2346  0.0782  0.0352  0.0252  0.0311  0.0504  0.0507 </r>
       </set>
       <set comment="band 9">
        <r>  0.0133  0.2147  0.0646  0.0462  0.0016  0.2151  0.0028  0.0239  0.0269 </r>
       </set>
       <set comment="band 10">
        <r>  0.0160  0.1470  0.0131  0.1186  0.0003  0.0386  0.0001  0.0001  0.0115 </r>
       </set>
       <set comment="band 11">
        <r>  0.0000  0.0092  0.0139  0.0046  0.0112  0.0506  0.0019  0.1013  0.1413 </r>
       </set>
       <set comment="band 12">
        <r>  0.0884  0.0100  0.0000  0.0198  0.1918  0.0006  0.0466  0.0879  0.0137 </r>
       </set>
      </set>
      <set comment="kpoint 60">
       <set comment="band 1">
        <r>  0.0302  0.0239  0.0138  0.0002  0.4716  0.0466  0.1681  0.0081  0.0355 </r>
       </set>
       <set comment="band 2">
        <r>  0.0000  0.0113  0.0169  0.0056  0.1472  0.0041  0.5972  0.0082  0.0641 </r>
       </set>
       <set comment="band 3">
        <r>  0.0574  0.0155  0.0000  0.0312  0.0094  0.0120  0.0032  0.3836  0.3240 </r>
       </set>
       <set comment="band 4">
        <r>  0.0024  0.0097  0.0014  0.0057  0.0383  0.6488  0.0227  0.1481  0.0525 </r>
       </set>
       <set comment="band 5">
        <r>  0.0000  0.0015  0.0022  0.0007  0.1016  0.1544  0.0285  0.3088  0.3711 </r>
       </set>
       <set comment="band 6">
        <r>  0.3299  0.0635  0.0053  0.0531  0.1236  0.0524  0.0205  0.0730  0.0624 </r>
       </set>
       <set comment="band 7">
        <r>  0.2924  0.1883  0.0459  0.0588  0.0063  0.0687  0.0011  0.0094  0.0024 </r>
       </set>
       <set comment="band 8">
        <r>  0.0000  0.1564  0.2346  0.0782  0.0183  0.0069  0.1133  0.0138  0.0402 </r>
       </set>
       <set comment="band 9">
        <r>  0.0133  0.0023  0.0982  0.2251  0.1069  0.0012  0.0525  0.0390  0.0706 </r>
       </set>
       <set comment="band 10">
        <r>  0.0160  0.0388  0.1263  0.1136  0.0082  0.0001  0.0060  0.0153  0.0211 </r>
       </set>
       <set comment="band 11">
        <r>  0.0000  0.0092  0.0138  0.0046  0.0739  0.0004  0.2279  0.0009  0.0034 </r>
       </set>
       <set comment="band 12">
        <r>  0.0884  0.0099  0.0149  0.0050  0.1359  0.0091  0.0301  0.1455  0.0200 </r>
       </set>
      </set>
      <set comment="kpoint 61">
       <set comment="band 1">
        <r>  0.0302  0.0238  0.0051  0.0089  0.0245  0.4937  0.0113  0.1884  0.0120 </r>
       </set>
       <set comment="band 2">
        <r>  0.0000  0.0113  0.0169  0.0056  0.0186  0.1327  0.0184  0.2653  0.3856 </r>
       </set>
       <set comment="band 3">
        <r>  0.0574  0.0155  0.0234  0.0078  0.0022  0.0193  0.0077  0.3585  0.3447 </r>
       </set>
       <set comment="band 4">
        <r>  0.0024  0.0097  0.0070  0.0000  0.6327  0.0544  0.2082  0.0004  0.0147 </r>
       </set>
       <set comment="band 5">
        <r>  0.0000  0.0015  0.0022  0.0007  0.2497  0.0063  0.6948  0.0127  0.0009 </r>
       </set>
       <set comment="band 6">
        <r>  0.3299  0.0635  0.0557  0.0027  0.0005  0.1754  0.0034  0.0184  0.1341 </r>
       </set>
       <set comment="band 7">
        <r>  0.2925  0.1884  0.1006  0.0041  0.0351  0.0399  0.0100  0.0028  0.0001 </r>
       </set>
       <set comment="band 8">
        <r>  0.0000  0.1564  0.2346  0.0782  0.0000  0.0252  0.0311  0.0504  0.0859 </r>
       </set>
       <set comment="band 9">
        <r>  0.0133  0.0023  0.0646  0.2586  0.0179  0.0902  0.0028  0.1488  0.0106 </r>
       </set>
       <set comment="band 10">
        <r>  0.0160  0.0388  0.0131  0.2269  0.0029  0.0054  0.0001  0.0333  0.0089 </r>
       </set>
       <set comment="band 11">
        <r>  0.0000  0.0092  0.0139  0.0046  0.0237  0.0506  0.0019  0.1013  0.1289 </r>
       </set>
       <set comment="band 12">
        <r>  0.0884  0.0099  0.0000  0.0199  0.0713  0.0737  0.0466  0.0148  0.1341 </r>
       </set>
      </set>
      <set comment="kpoint 62">
       <set comment="band 1">
        <r>  0.0302  0.0238  0.0021  0.0119  0.2812  0.2369  0.0581  0.1185  0.0352 </r>
       </set>
       <set comment="band 2">
        <r>  0.0000  0.0113  0.0000  0.0225  0.0611  0.0902  0.0000  0.1804  0.4889 </r>
       </set>
       <set comment="band 3">
        <r>  0.0574  0.0155  0.0234  0.0078  0.0206  0.0008  0.7079  0.0004  0.0026 </r>
       </set>
       <set comment="band 4">
        <r>  0.0024  0.0097  0.0022  0.0049  0.3596  0.3275  0.0146  0.1638  0.0449 </r>
       </set>
       <set comment="band 5">
        <r>  0.0000  0.0015  0.0000  0.0029  0.0327  0.2233  0.0000  0.4466  0.2618 </r>
       </set>
       <set comment="band 6">
        <r>  0.3299  0.0635  0.0266  0.0318  0.1399  0.0361  0.1204  0.0180  0.0175 </r>
       </set>
       <set comment="band 7">
        <r>  0.2925  0.1884  0.0106  0.0942  0.0711  0.0039  0.0020  0.0019  0.0089 </r>
       </set>
       <set comment="band 8">
        <r>  0.0000  0.1564  0.0000  0.3128  0.0195  0.0057  0.0000  0.0114  0.1559 </r>
       </set>
       <set comment="band 9">
        <r>  0.0133  0.0023  0.3221  0.0012  0.0373  0.0708  0.1221  0.0354  0.0047 </r>
       </set>
       <set comment="band 10">
        <r>  0.0160  0.0388  0.2206  0.0194  0.0013  0.0069  0.0387  0.0035  0.0002 </r>
       </set>
       <set comment="band 11">
        <r>  0.0000  0.0092  0.0000  0.0185  0.0139  0.0604  0.0000  0.1208  0.1113 </r>
       </set>
       <set comment="band 12">
        <r>  0.0884  0.0099  0.0150  0.0049  0.0103  0.1347  0.1269  0.0674  0.0013 </r>
       </set>
      </set>
      <set comment="kpoint 63">
       <set comment="band 1">
        <r>  0.0302  0.0014  0.0358  0.0007  0.2134  0.2370  0.1344  0.1185  0.0267 </r>
       </set>
       <set comment="band 2">
        <r>  0.0000  0.0113  0.0000  0.0225  0.0301  0.1833  0.0000  0.3667  0.2406 </r>
       </set>
       <set comment="band 3">
        <r>  0.0574  0.0156  0.0233  0.0078  0.3785  0.0008  0.3052  0.0004  0.0473 </r>
       </set>
       <set comment="band 4">
        <r>  0.0024  0.0015  0.0146  0.0007  0.1589  0.3275  0.2404  0.1638  0.0199 </r>
       </set>
       <set comment="band 5">
        <r>  0.0000  0.0015  0.0000  0.0029  0.0744  0.0982  0.0000  0.1964  0.5955 </r>
       </set>
       <set comment="band 6">
        <r>  0.3299  0.0178  0.0953  0.0089  0.0093  0.0361  0.2673  0.0180  0.0012 </r>
       </set>
       <set comment="band 7">
        <r>  0.2924  0.0071  0.2825  0.0035  0.0290  0.0039  0.0494  0.0019  0.0036 </r>
       </set>
       <set comment="band 8">
        <r>  0.0000  0.1564  0.0000  0.3128  0.0019  0.0584  0.0000  0.1169  0.0152 </r>
       </set>
       <set comment="band 9">
        <r>  0.0133  0.2147  0.0035  0.1074  0.1458  0.0708  0.0000  0.0354  0.0182 </r>
       </set>
       <set comment="band 10">
        <r>  0.0160  0.1470  0.0581  0.0735  0.0320  0.0069  0.0042  0.0035  0.0040 </r>
       </set>
       <set comment="band 11">
        <r>  0.0000  0.0092  0.0000  0.0185  0.0201  0.0417  0.0000  0.0835  0.1610 </r>
       </set>
       <set comment="band 12">
        <r>  0.0884  0.0100  0.0148  0.0050  0.0576  0.1347  0.0737  0.0674  0.0072 </r>
       </set>
      </set>
     </set>
    </set>
   </array>
  </projected>
 </calculation>
 <structure name="finalpos" >
  <crystal>
   <varray name="basis" >
    <v>       2.72704500       0.00000500       1.57447600 </v>
    <v>       0.90902100       2.57107900       1.57447600 </v>
    <v>       0.00000700       0.00000500       3.14892700 </v>
   </varray>
   <i name="volume">     22.07848137 </i>
   <varray name="rec_basis" >
    <v>       0.36669788      -0.12964795      -0.00000061 </v>
    <v>      -0.00000036       0.38894227      -0.00000062 </v>
    <v>      -0.18335022      -0.12964819       0.31756911 </v>
   </varray>
  </crystal>
  <varray name="positions" >
   <v>       0.00000000       0.00000000       0.00000000 </v>
  </varray>
 </structure>
</modeling>
