 running on   16 total cores
 distrk:  each k-point on   16 cores,    1 groups
 distr:  one band on    4 cores,    4 groups
 vasp.6.2.0 18Jan21 (build Feb  1 2022 01:28:57) complex                         
 POSCAR found type information on POSCAR Pt
 POSCAR found :  1 types and       1 ions
 scaLAPACK will be used
 -----------------------------------------------------------------------------
|                                                                             |
|               ----> ADVICE to this user running VASP <----                  |
|                                                                             |
|     You enforced a specific xc type in the INCAR file but a different       |
|     type was found in the POTCAR file.                                      |
|     I HOPE YOU KNOW WHAT YOU ARE DOING!                                     |
|                                                                             |
 -----------------------------------------------------------------------------

 LDA part: xc-table for Pade appr. of Perdew
 POSCAR, INCAR and KPOINTS ok, starting setup
 FFT: planning ...
 WAVECAR not read
 entering main loop
       N       E                     dE             d eps       ncg     rms          rms(c)
DAV:   1     0.360256938059E+02    0.36026E+02   -0.47537E+03  6560   0.667E+02
DAV:   2    -0.523414056523E+01   -0.41260E+02   -0.39564E+02  7484   0.157E+02
DAV:   3    -0.576171018297E+01   -0.52757E+00   -0.52379E+00  7680   0.165E+01
DAV:   4    -0.576380850924E+01   -0.20983E-02   -0.20981E-02  7600   0.124E+00
DAV:   5    -0.576382502582E+01   -0.16517E-04   -0.16518E-04  7804   0.990E-02    0.126E+01
DAV:   6    -0.545482416892E+01    0.30900E+00   -0.61234E-01  6832   0.606E+00    0.679E+00
DAV:   7    -0.541436994097E+01    0.40454E-01   -0.14767E-01  7472   0.294E+00    0.242E+00
DAV:   8    -0.541139491560E+01    0.29750E-02   -0.66620E-03  6932   0.650E-01    0.628E-01
DAV:   9    -0.541114114377E+01    0.25377E-03   -0.17230E-04  7172   0.107E-01    0.691E-02
DAV:  10    -0.541114284871E+01   -0.17049E-05   -0.64150E-06  3504   0.205E-02
   1 F= -.54111428E+01 E0= -.54097324E+01  d E =-.282087E-02
