       N       E                     dE             d eps       ncg     rms          rms(c)
DAV:   1     0.279123772444E+02    0.27912E+02   -0.41984E+03  7000   0.556E+02
DAV:   2    -0.538352612261E+01   -0.33296E+02   -0.32024E+02  7584   0.139E+02
DAV:   3    -0.576070634854E+01   -0.37718E+00   -0.37585E+00  7684   0.135E+01
DAV:   4    -0.576224266958E+01   -0.15363E-02   -0.15362E-02  7648   0.103E+00
DAV:   5    -0.576225459603E+01   -0.11926E-04   -0.11926E-04  7696   0.807E-02    0.126E+01
DAV:   6    -0.545351003847E+01    0.30874E+00   -0.61174E-01  6732   0.603E+00    0.678E+00
DAV:   7    -0.541303061961E+01    0.40479E-01   -0.14698E-01  7408   0.293E+00    0.241E+00
DAV:   8    -0.541002155816E+01    0.30091E-02   -0.65255E-03  6920   0.634E-01    0.626E-01
DAV:   9    -0.540977052634E+01    0.25103E-03   -0.16369E-04  7216   0.105E-01    0.742E-02
DAV:  10    -0.540977194248E+01   -0.14161E-05   -0.62905E-06  3492   0.203E-02
   1 F= -.54097719E+01 E0= -.54083601E+01  d E =-.282378E-02
