 vasp.6.2.0 18Jan21 (build Feb  1 2022 01:28:57) complex                         
 executed on             LinuxPGI date 2022.05.17  22:32:35
 running on   16 total cores
 distrk:  each k-point on   16 cores,    1 groups
 distr:  one band on NCORE=   4 cores,    4 groups


--------------------------------------------------------------------------------------------------------


 INCAR:
   ALGO = 38
   AMIN = 0.01
   AMIX = 0.2
   BMIX = 0.001
   EDIFF = 0.0001
   EDIFFG = 0.001
   ENCUT = 420
   GGA = RP
   IBRION = 2
   ISIF = 0
   ISMEAR = 0
   ISPIN = 1
   ISYM = 0
   LASPH = False
   LORBIT = 11
   LREAL = True
   LVTOT = False
   LWAVE = False
   NCORE = 4
   NELM = 60
   NELMIN = 4
   NSW = 300
   PREC = Normal
   SIGMA = 0.05
   SYMPREC = 1e-05

 POTCAR:    PAW_PBE Pt 04Feb2005                  
 POTCAR:    PAW_PBE C 08Apr2002                   
 POTCAR:    PAW_PBE O 08Apr2002                   
 POTCAR:    PAW_PBE Pt 04Feb2005                  
   SHA256 =  3ed90460adef76debcff1cfb73ee1349b515b1a3db03439735b44de3a8db7dc8 Pt/POTCAR             
   COPYR  = (c) Copyright 04Feb2005 Georg Kresse                                                    
   COPYR  = This file is part of the software VASP. Any use, copying, and all other rights are regul
   COPYR  = If you do not have a valid VASP license, you may not use, copy or distribute this file. 
   VRHFIN =Pt: s1d9                                                                                 
   LEXCH  = PE                                                                                      
   EATOM  =   729.1176 eV,   53.5886 Ry                                                             
                                                                                                    
   TITEL  = PAW_PBE Pt 04Feb2005                                                                    
   LULTRA =        F    use ultrasoft PP ?                                                          
   IUNSCR =        1    unscreen: 0-lin 1-nonlin 2-no                                               
   RPACOR =    2.330    partial core radius                                                         
   POMASS =  195.080; ZVAL   =   10.000    mass and valenz                                          
   RCORE  =    2.600    outmost cutoff radius                                                       
   RWIGS  =    2.750; RWIGS  =    1.455    wigner-seitz radius (au A)                               
   ENMAX  =  230.283; ENMIN  =  172.712 eV                                                          
   ICORE  =        3    local potential                                                             
   LCOR   =        T    correct aug charges                                                         
   LPAW   =        T    paw PP                                                                      
   EAUG   =  358.966                                                                                
   DEXC   =    0.000                                                                                
   RMAX   =    2.658    core radius for proj-oper                                                   
   RAUG   =    1.300    factor for augmentation sphere                                              
   RDEP   =    2.761    radius for radial grids                                                     
   RDEPT  =    2.203    core radius for aug-charge                                                  
                                                                                                    
   Atomic configuration                                                                             
   16 entries                                                                                       
     n  l   j            E        occ.                                                              
     1  0  0.50    -78401.1885   2.0000                                                             
     2  0  0.50    -13770.7750   2.0000                                                             
     2  1  1.50    -11931.0468   6.0000                                                             
     3  0  0.50     -3234.7234   2.0000                                                             
     3  1  1.50     -2699.2216   6.0000                                                             
     3  2  2.50     -2119.5714  10.0000                                                             
     4  0  0.50      -695.1528   2.0000                                                             
     4  1  1.50      -519.6034   6.0000                                                             
     4  2  2.50      -306.6786  10.0000                                                             
     4  3  3.50       -70.1041  14.0000                                                             
     5  0  0.50      -101.7747   2.0000                                                             
     5  1  1.50       -55.9873   6.0000                                                             
     5  2  2.50        -6.1423   9.0000                                                             
     6  0  0.50        -5.6573   1.0000                                                             
     6  1  1.50        -6.8029   0.0000                                                             
     5  3  2.50        -1.3606   0.0000                                                             
   Description                                                                                      
     l       E           TYP  RCUT    TYP  RCUT                                                     
     2     -6.1423404     23  2.500                                                                 
     2     -7.5029230     23  2.500                                                                 
     0     -5.6573207     23  2.500                                                                 
     0      0.7416693     23  2.500                                                                 
     1     -2.7211652     23  2.600                                                                 
     1     20.4087390     23  2.600                                                                 
     3     -1.3605826     23  2.500                                                                 
  local pseudopotential read in
  partial core-charges read in
  partial kinetic energy density read in
  atomic valenz-charges read in
  non local Contribution for L=            2  read in
    real space projection operators read in
  non local Contribution for L=            2  read in
    real space projection operators read in
  non local Contribution for L=            0  read in
    real space projection operators read in
  non local Contribution for L=            0  read in
    real space projection operators read in
  non local Contribution for L=            1  read in
    real space projection operators read in
  non local Contribution for L=            1  read in
    real space projection operators read in
    PAW grid and wavefunctions read in
 
   number of l-projection  operators is LMAX  =            6
   number of lm-projection operators is LMMAX =           18
 
 POTCAR:    PAW_PBE C 08Apr2002                   
   SHA256 =  253f7b50bb8d59471dbedb8285d89021f4a42ed1a2c5d38a03a736e69125dd95 C/POTCAR              
   COPYR  = (c) Copyright 08Apr2002 Georg Kresse                                                    
   COPYR  = This file is part of the software VASP. Any use, copying, and all other rights are regul
   COPYR  = If you do not have a valid VASP license, you may not use, copy or distribute this file. 
   VRHFIN =C: s2p2                                                                                  
   LEXCH  = PE                                                                                      
   EATOM  =   147.1560 eV,   10.8157 Ry                                                             
                                                                                                    
   TITEL  = PAW_PBE C 08Apr2002                                                                     
   LULTRA =        F    use ultrasoft PP ?                                                          
   IUNSCR =        1    unscreen: 0-lin 1-nonlin 2-no                                               
   RPACOR =    1.200    partial core radius                                                         
   POMASS =   12.011; ZVAL   =    4.000    mass and valenz                                          
   RCORE  =    1.500    outmost cutoff radius                                                       
   RWIGS  =    1.630; RWIGS  =    0.863    wigner-seitz radius (au A)                               
   ENMAX  =  400.000; ENMIN  =  300.000 eV                                                          
   ICORE  =        2    local potential                                                             
   LCOR   =        T    correct aug charges                                                         
   LPAW   =        T    paw PP                                                                      
   EAUG   =  644.873                                                                                
   DEXC   =    0.000                                                                                
   RMAX   =    1.529    core radius for proj-oper                                                   
   RAUG   =    1.300    factor for augmentation sphere                                              
   RDEP   =    1.501    radius for radial grids                                                     
   RDEPT  =    1.300    core radius for aug-charge                                                  
                                                                                                    
   Atomic configuration                                                                             
    4 entries                                                                                       
     n  l   j            E        occ.                                                              
     1  0  0.50      -273.3789   2.0000                                                             
     2  0  0.50       -13.7508   2.0000                                                             
     2  1  0.50        -5.2854   2.0000                                                             
     3  2  1.50        -5.4423   0.0000                                                             
   Description                                                                                      
     l       E           TYP  RCUT    TYP  RCUT                                                     
     0    -13.7508458     23  1.200                                                                 
     0     -8.2022199     23  1.200                                                                 
     1     -5.2854383     23  1.500                                                                 
     1     34.0145650     23  1.500                                                                 
     2     -5.4423304      7  1.500                                                                 
  local pseudopotential read in
  partial core-charges read in
  partial kinetic energy density read in
  atomic valenz-charges read in
  non local Contribution for L=            0  read in
    real space projection operators read in
  non local Contribution for L=            0  read in
    real space projection operators read in
  non local Contribution for L=            1  read in
    real space projection operators read in
  non local Contribution for L=            1  read in
    real space projection operators read in
    PAW grid and wavefunctions read in
 
   number of l-projection  operators is LMAX  =            4
   number of lm-projection operators is LMMAX =            8
 
 POTCAR:    PAW_PBE O 08Apr2002                   
   SHA256 =  818f92134a0a090dccd8ba1447fa70422a3b330e708bb4f08108d8ae51209ddf O/POTCAR              
   COPYR  = (c) Copyright 08Apr2002 Georg Kresse                                                    
   COPYR  = This file is part of the software VASP. Any use, copying, and all other rights are regul
   COPYR  = If you do not have a valid VASP license, you may not use, copy or distribute this file. 
   VRHFIN =O: s2p4                                                                                  
   LEXCH  = PE                                                                                      
   EATOM  =   432.3788 eV,   31.7789 Ry                                                             
                                                                                                    
   TITEL  = PAW_PBE O 08Apr2002                                                                     
   LULTRA =        F    use ultrasoft PP ?                                                          
   IUNSCR =        1    unscreen: 0-lin 1-nonlin 2-no                                               
   RPACOR =    1.200    partial core radius                                                         
   POMASS =   16.000; ZVAL   =    6.000    mass and valenz                                          
   RCORE  =    1.520    outmost cutoff radius                                                       
   RWIGS  =    1.550; RWIGS  =    0.820    wigner-seitz radius (au A)                               
   ENMAX  =  400.000; ENMIN  =  300.000 eV                                                          
   ICORE  =        2    local potential                                                             
   LCOR   =        T    correct aug charges                                                         
   LPAW   =        T    paw PP                                                                      
   EAUG   =  605.392                                                                                
   DEXC   =    0.000                                                                                
   RMAX   =    1.553    core radius for proj-oper                                                   
   RAUG   =    1.300    factor for augmentation sphere                                              
   RDEP   =    1.550    radius for radial grids                                                     
   RDEPT  =    1.329    core radius for aug-charge                                                  
                                                                                                    
   Atomic configuration                                                                             
    4 entries                                                                                       
     n  l   j            E        occ.                                                              
     1  0  0.50      -514.6923   2.0000                                                             
     2  0  0.50       -23.9615   2.0000                                                             
     2  1  0.50        -9.0305   4.0000                                                             
     3  2  1.50        -9.5241   0.0000                                                             
   Description                                                                                      
     l       E           TYP  RCUT    TYP  RCUT                                                     
     0    -23.9615318     23  1.200                                                                 
     0     -9.5240782     23  1.200                                                                 
     1     -9.0304911     23  1.520                                                                 
     1      8.1634956     23  1.520                                                                 
     2     -9.5240782      7  1.500                                                                 
  local pseudopotential read in
  partial core-charges read in
  partial kinetic energy density read in
  kinetic energy density of atom read in
  atomic valenz-charges read in
  non local Contribution for L=            0  read in
    real space projection operators read in
  non local Contribution for L=            0  read in
    real space projection operators read in
  non local Contribution for L=            1  read in
    real space projection operators read in
  non local Contribution for L=            1  read in
    real space projection operators read in
    PAW grid and wavefunctions read in
 
   number of l-projection  operators is LMAX  =            4
   number of lm-projection operators is LMMAX =            8
 
 -----------------------------------------------------------------------------
|                                                                             |
|           W    W    AA    RRRRR   N    N  II  N    N   GGGG   !!!           |
|           W    W   A  A   R    R  NN   N  II  NN   N  G    G  !!!           |
|           W    W  A    A  R    R  N N  N  II  N N  N  G       !!!           |
|           W WW W  AAAAAA  RRRRR   N  N N  II  N  N N  G  GGG   !            |
|           WW  WW  A    A  R   R   N   NN  II  N   NN  G    G                |
|           W    W  A    A  R    R  N    N  II  N    N   GGGG   !!!           |
|                                                                             |
|     The real-space projection scheme for the treatment of the non-local     |
|     pseudopotentials has been switched on but on file POTCAR I have not     |
|     found any entries, signalling me that you have never performed a        |
|     real-space optimization of all non-local projectors! BE WARNED that     |
|     a calculation using the real-space projection scheme together with      |
|     non-local projectors which were not real-space optimized (according     |
|     to the plane-wave cutoff used in this calculation) might give more      |
|     or less inaccurate results. I hope you know what you are doing.         |
|                                                                             |
 -----------------------------------------------------------------------------

 -----------------------------------------------------------------------------
|                                                                             |
|               ----> ADVICE to this user running VASP <----                  |
|                                                                             |
|     You enforced a specific xc type in the INCAR file but a different       |
|     type was found in the POTCAR file.                                      |
|     I HOPE YOU KNOW WHAT YOU ARE DOING!                                     |
|                                                                             |
 -----------------------------------------------------------------------------

  PAW_PBE Pt 04Feb2005                  :
 energy of atom  1       EATOM= -729.1176
 kinetic energy error for atom=    0.0052 (will be added to EATOM!!)
  PAW_PBE C 08Apr2002                   :
 energy of atom  2       EATOM= -147.1560
 kinetic energy error for atom=    0.0192 (will be added to EATOM!!)
  PAW_PBE O 08Apr2002                   :
 energy of atom  3       EATOM= -432.3788
 kinetic energy error for atom=    0.0724 (will be added to EATOM!!)
 
 
 POSCAR: Pt16 C1 O1
  positions in direct lattice
  No initial velocities read in
 exchange correlation table for  LEXCH =        9
   RHO(1)=    0.500       N(1)  =     2000
   RHO(2)=  100.500       N(2)  =     4000
 


--------------------------------------------------------------------------------------------------------


 ion  position               nearest neighbor table
   1  0.016  0.141  0.406-   5 2.82   2 2.82   2 2.82   6 2.82   7 2.82   3 2.82   3 2.82   4 2.82
                             4 2.82
   2  0.016  0.641  0.406-   6 2.82   1 2.82   1 2.82   5 2.82   8 2.82   4 2.82   4 2.82   3 2.82
                             3 2.82
   3  0.516  0.141  0.406-   7 2.82   4 2.82   4 2.82   8 2.82   5 2.82   1 2.82   1 2.82   2 2.82
                             2 2.82
   4  0.516  0.641  0.406-   8 2.82   3 2.82   3 2.82   7 2.82   6 2.82   2 2.82   2 2.82   1 2.82
                             1 2.82
   5  0.172  0.297  0.469-   9 2.77  11 2.81   1 2.82   6 2.82   6 2.82   2 2.82   3 2.82   7 2.82
                             7 2.82   8 2.82   8 2.82  10 2.97
   6  0.172  0.797  0.469-  10 2.77  12 2.81   2 2.82   5 2.82   5 2.82   1 2.82   4 2.82   8 2.82
                             8 2.82   7 2.82   7 2.82   9 2.97
   7  0.672  0.297  0.469-  11 2.77   9 2.81   3 2.82   8 2.82   8 2.82   4 2.82   1 2.82   5 2.82
                             5 2.82   6 2.82   6 2.82  12 2.97
   8  0.672  0.797  0.469-  12 2.77  10 2.81   4 2.82   7 2.82   7 2.82   3 2.82   2 2.82   6 2.82
                             6 2.82   5 2.82   5 2.82  11 2.97
   9  0.343  0.409  0.532-   5 2.77   7 2.81  10 2.82  11 2.82  12 2.82  12 2.82  11 2.82  10 2.82
                            14 2.85  16 2.91   6 2.97  13 3.10
  10  0.343  0.909  0.532-   6 2.77   8 2.81  12 2.82  11 2.82   9 2.82   9 2.82  11 2.82  12 2.82
                            13 2.85  15 2.91   5 2.97  14 3.10
  11  0.843  0.409  0.532-   7 2.77   5 2.81  10 2.82  12 2.82   9 2.82   9 2.82  12 2.82  10 2.82
                            16 2.85  14 2.91   8 2.97  15 3.10
  12  0.843  0.909  0.532-   8 2.77   6 2.81  10 2.82  11 2.82   9 2.82   9 2.82  11 2.82  10 2.82
                            15 2.85  13 2.91   7 2.97  16 3.10
  13  0.513  0.011  0.599-  17 2.58  15 2.82  14 2.82  16 2.82  16 2.82  14 2.82  15 2.82  10 2.85
                            12 2.91   9 3.10
  14  0.513  0.511  0.599-  17 2.58  13 2.82  16 2.82  15 2.82  15 2.82  16 2.82  13 2.82   9 2.85
                            11 2.91  10 3.10
  15  0.013  0.010  0.599-  17 2.58  13 2.82  16 2.82  14 2.82  14 2.82  16 2.82  13 2.82  12 2.85
                            10 2.91  11 3.10
  16  0.013  0.511  0.599-  15 2.82  13 2.82  14 2.82  14 2.82  13 2.82  15 2.82  11 2.85   9 2.91
                            12 3.10
  17  0.671  0.168  0.653-  18 1.15  15 2.58  14 2.58  13 2.58
  18  0.666  0.163  0.684-  17 1.15
 

IMPORTANT INFORMATION: All symmetrisations will be switched off!
NOSYMM: (Re-)initialisation of all symmetry stuff for point group C_1.


----------------------------------------------------------------------------------------

                                     Primitive cell                                     

  volume of cell :    1013.3605

  direct lattice vectors                    reciprocal lattice vectors
     5.633072000  0.000000000  0.215543000     0.177523028 -0.102293022  0.000000000
     2.812412000  4.880762000  0.215543000     0.000000000  0.204886040  0.000000000
     0.000000000  0.000000000 36.857938000    -0.001038144 -0.000599958  0.027131198

  length of vectors
     5.637194244  5.637194137 36.857938000     0.204886036  0.204886040  0.027157680

  position of ions in fractional coordinates (direct lattice)
     0.015625000  0.140625000  0.406250000
     0.015625000  0.640625000  0.406250000
     0.515625000  0.140625000  0.406250000
     0.515625000  0.640625000  0.406250000
     0.171875000  0.296875000  0.468750000
     0.171875000  0.796875000  0.468750000
     0.671875000  0.296875000  0.468750000
     0.671875000  0.796875000  0.468750000
     0.342792000  0.409173000  0.532126000
     0.342803000  0.909138000  0.532132000
     0.842766000  0.409261000  0.532140000
     0.842875000  0.909234000  0.532132000
     0.513159000  0.010549000  0.598671000
     0.513126000  0.510509000  0.598684000
     0.013121000  0.010493000  0.598686000
     0.013114000  0.510523000  0.598681000
     0.670750000  0.168131000  0.652996000
     0.665543000  0.162924000  0.684236000

  ion indices of the primitive-cell ions
   primitive index   ion index
                 1           1
                 2           2
                 3           3
                 4           4
                 5           5
                 6           6
                 7           7
                 8           8
                 9           9
                10          10
                11          11
                12          12
                13          13
                14          14
                15          15
                16          16
                17          17
                18          18

----------------------------------------------------------------------------------------

 
 
 KPOINTS: Automatic kpoint scheme                 

Automatic generation of k-mesh.
 Grid dimensions read from file:
 generate k-points for:    2    2    1

 Generating k-lattice:

  Cartesian coordinates                     Fractional coordinates (reciprocal lattice)
     0.088761514 -0.051146511  0.000000000     0.500000000  0.000000000  0.000000000
     0.000000000  0.102443020  0.000000000     0.000000000  0.500000000  0.000000000
    -0.001038144 -0.000599958  0.027131198     0.000000000  0.000000000  1.000000000

  Length of vectors
     0.102443018  0.102443020  0.027157680

  Shift w.r.t. Gamma in fractional coordinates (k-lattice)
     0.000000000  0.000000000  0.000000000

 
 Subroutine IBZKPT returns following result:
 ===========================================
 
 Found      4 irreducible k-points:
 
 Following reciprocal coordinates:
            Coordinates               Weight
  0.000000  0.000000  0.000000      1.000000
  0.500000  0.000000  0.000000      1.000000
  0.000000  0.500000  0.000000      1.000000
  0.500000  0.500000  0.000000      1.000000
 
 Following cartesian coordinates:
            Coordinates               Weight
  0.000000  0.000000  0.000000      1.000000
  0.088762 -0.051147  0.000000      1.000000
  0.000000  0.102443  0.000000      1.000000
  0.088762  0.051297  0.000000      1.000000
 


--------------------------------------------------------------------------------------------------------




 Dimension of arrays:
   k-points           NKPTS =      4   k-points in BZ     NKDIM =      4   number of bands    NBANDS=    104
   number of dos      NEDOS =    301   number of ions     NIONS =     18
   non local maximal  LDIM  =      6   non local SUM 2l+1 LMDIM =     18
   total plane-waves  NPLWV = 150528
   max r-space proj   IRMAX =   1782   max aug-charges    IRDMAX=   9195
   dimension x,y,z NGX =    28 NGY =   28 NGZ =  192
   dimension x,y,z NGXF=    56 NGYF=   56 NGZF=  384
   support grid    NGXF=    56 NGYF=   56 NGZF=  384
   ions per type =              16   1   1
   NGX,Y,Z   is equivalent  to a cutoff of   8.26,  8.26,  8.66 a.u.
   NGXF,Y,Z  is equivalent  to a cutoff of  16.51, 16.51, 17.32 a.u.

 SYSTEM =  unknown system                          
 POSCAR =  Pt16 C1 O1                              

 Startparameter for this run:
   NWRITE =      2    write-flag & timer
   PREC   = normal    normal or accurate (medium, high low for compatibility)
   ISTART =      0    job   : 0-new  1-cont  2-samecut
   ICHARG =      2    charge: 1-file 2-atom 10-const
   ISPIN  =      1    spin polarized calculation?
   LNONCOLLINEAR =      F non collinear calculations
   LSORBIT =      F    spin-orbit coupling
   INIWAV =      1    electr: 0-lowe 1-rand  2-diag
   LASPH  =      F    aspherical Exc in radial PAW
   METAGGA=      F    non-selfconsistent MetaGGA calc.

 Electronic Relaxation 1
   ENCUT  =  420.0 eV  30.87 Ry    5.56 a.u.   9.42  9.42 61.59*2*pi/ulx,y,z
   ENINI  =  420.0     initial cutoff
   ENAUG  =  644.9 eV  augmentation charge cutoff
   NELM   =     60;   NELMIN=  4; NELMDL= -5     # of ELM steps 
   EDIFF  = 0.1E-03   stopping-criterion for ELM
   LREAL  =      T    real-space projection
   NLSPLINE    = F    spline interpolate recip. space projectors
   LCOMPAT=      F    compatible to vasp.4.4
   GGA_COMPAT  = T    GGA compatible to vasp.4.4-vasp.4.6
   LMAXPAW     = -100 max onsite density
   LMAXMIX     =    2 max onsite mixed and CHGCAR
   VOSKOWN=      0    Vosko Wilk Nusair interpolation
   ROPT   =    0.00000   0.00000   0.00000
 Ionic relaxation
   EDIFFG = 0.1E-02   stopping-criterion for IOM
   NSW    =    300    number of steps for IOM
   NBLOCK =      1;   KBLOCK =    300    inner block; outer block 
   IBRION =      2    ionic relax: 0-MD 1-quasi-New 2-CG
   NFREE  =      1    steps in history (QN), initial steepest desc. (CG)
   ISIF   =      0    stress and relaxation
   IWAVPR =     11    prediction:  0-non 1-charg 2-wave 3-comb
   ISYM   =      0    0-nonsym 1-usesym 2-fastsym
   LCORR  =      T    Harris-Foulkes like correction to forces

   POTIM  = 0.5000    time-step for ionic-motion
   TEIN   =    0.0    initial temperature
   TEBEG  =    0.0;   TEEND  =   0.0 temperature during run
   SMASS  =  -3.00    Nose mass-parameter (am)
   estimated Nose-frequenzy (Omega)   =  0.10E-29 period in steps = 0.13E+47 mass=  -0.726E-27a.u.
   SCALEE = 1.0000    scale energy and forces
   NPACO  =    256;   APACO  = 16.0  distance and # of slots for P.C.
   PSTRESS=    0.0 pullay stress

  Mass of Ions in am
   POMASS = 195.08 12.01 16.00
  Ionic Valenz
   ZVAL   =  10.00  4.00  6.00
  Atomic Wigner-Seitz radii
   RWIGS  =  -1.00 -1.00 -1.00
  virtual crystal weights 
   VCA    =   1.00  1.00  1.00
   NELECT =     170.0000    total number of electrons
   NUPDOWN=      -1.0000    fix difference up-down

 DOS related values:
   EMIN   =  10.00;   EMAX   =-10.00  energy-range for DOS
   EFERMI =   0.00
   ISMEAR =     0;   SIGMA  =   0.05  broadening in eV -4-tet -1-fermi 0-gaus

 Electronic relaxation 2 (details)
   IALGO  =     38    algorithm
   LDIAG  =      T    sub-space diagonalisation (order eigenvalues)
   LSUBROT=      F    optimize rotation matrix (better conditioning)
   TURBO    =      0    0=normal 1=particle mesh
   IRESTART =      0    0=no restart 2=restart with 2 vectors
   NREBOOT  =      0    no. of reboots
   NMIN     =      0    reboot dimension
   EREF     =   0.00    reference energy to select bands
   IMIX   =      4    mixing-type and parameters
     AMIX     =   0.20;   BMIX     =  0.00
     AMIX_MAG =   0.80;   BMIX_MAG =  0.00
     AMIN     =   0.01
     WC   =   100.;   INIMIX=   1;  MIXPRE=   1;  MAXMIX= -45

 Intra band minimization:
   WEIMIN = 0.0010     energy-eigenvalue tresh-hold
   EBREAK =  0.24E-06  absolut break condition
   DEPER  =   0.30     relativ break condition  

   TIME   =   0.40     timestep for ELM

  volume/ion in A,a.u.               =      56.30       379.92
  Fermi-wavevector in a.u.,A,eV,Ry     =   0.902893  1.706221 11.091694  0.815217
  Thomas-Fermi vector in A             =   2.026153
 
 Write flags
   LWAVE        =      F    write WAVECAR
   LDOWNSAMPLE  =      F    k-point downsampling of WAVECAR
   LCHARG       =      T    write CHGCAR
   LVTOT        =      F    write LOCPOT, total local potential
   LVHAR        =      F    write LOCPOT, Hartree potential only
   LELF         =      F    write electronic localiz. function (ELF)
   LORBIT       =     11    0 simple, 1 ext, 2 COOP (PROOUT), +10 PAW based schemes


 Dipole corrections
   LMONO  =      F    monopole corrections only (constant potential shift)
   LDIPOL =      F    correct potential (dipole corrections)
   IDIPOL =      0    1-x, 2-y, 3-z, 4-all directions 
   EPSILON=  1.0000000 bulk dielectric constant

 Exchange correlation treatment:
   GGA     =    RP    GGA type
   LEXCH   =     9    internal setting for exchange type
   VOSKOWN=      0    Vosko Wilk Nusair interpolation
   LHFCALC =     F    Hartree Fock is set to
   LHFONE  =     F    Hartree Fock one center treatment
   AEXX    =    0.0000 exact exchange contribution

 Linear response parameters
   LEPSILON=     F    determine dielectric tensor
   LRPA    =     F    only Hartree local field effects (RPA)
   LNABLA  =     F    use nabla operator in PAW spheres
   LVEL    =     F    velocity operator in full k-point grid
   LINTERFAST=   F  fast interpolation
   KINTER  =     0    interpolate to denser k-point grid
   CSHIFT  =0.1000    complex shift for real part using Kramers Kronig
   OMEGAMAX=  -1.0    maximum frequency
   DEG_THRESHOLD= 0.2000000E-02 threshold for treating states as degnerate
   RTIME   =   -0.100 relaxation time in fs
  (WPLASMAI=    0.000 imaginary part of plasma frequency in eV, 0.658/RTIME)
   DFIELD  = 0.0000000 0.0000000 0.0000000 field for delta impulse in time
 
 Orbital magnetization related:
   ORBITALMAG=     F  switch on orbital magnetization
   LCHIMAG   =     F  perturbation theory with respect to B field
   DQ        =  0.001000  dq finite difference perturbation B field
   LLRAUG    =     F  two centre corrections for induced B field



--------------------------------------------------------------------------------------------------------


 conjugate gradient relaxation of ions
   using selective dynamics as specified on POSCAR
 charge density and potential will be updated during run
 non-spin polarized calculation
 Variant of blocked Davidson
 Davidson routine will perform the subspace rotation
 perform sub-space diagonalisation
    after iterative eigenvector-optimisation
 modified Broyden-mixing scheme, WC =      100.0
 initial mixing is a Kerker type mixing with AMIX =  0.2000 and BMIX =      0.0010
 Hartree-type preconditioning will be used
 using additional bands            19
 real space projection scheme for non local part
 use partial core corrections
 calculate Harris-corrections to forces 
   (improved forces if not selfconsistent)
 use gradient corrections 
 use of overlap-Matrix (Vanderbilt PP)
 Gauss-broadening in eV      SIGMA  =   0.05


--------------------------------------------------------------------------------------------------------


  energy-cutoff  :      420.00
  volume of cell :     1013.36
      direct lattice vectors                 reciprocal lattice vectors
     5.633072000  0.000000000  0.215543000     0.177523028 -0.102293022  0.000000000
     2.812412000  4.880762000  0.215543000     0.000000000  0.204886040  0.000000000
     0.000000000  0.000000000 36.857938000    -0.001038144 -0.000599958  0.027131198

  length of vectors
     5.637194244  5.637194137 36.857938000     0.204886036  0.204886040  0.027157680


 
 k-points in units of 2pi/SCALE and weight: Automatic kpoint scheme                 
   0.00000000  0.00000000  0.00000000       0.250
   0.08876151 -0.05114651  0.00000000       0.250
   0.00000000  0.10244302  0.00000000       0.250
   0.08876151  0.05129651  0.00000000       0.250
 
 k-points in reciprocal lattice and weights: Automatic kpoint scheme                 
   0.00000000  0.00000000  0.00000000       0.250
   0.50000000  0.00000000  0.00000000       0.250
   0.00000000  0.50000000  0.00000000       0.250
   0.50000000  0.50000000  0.00000000       0.250
 
 position of ions in fractional coordinates (direct lattice) 
   0.01562500  0.14062500  0.40625000
   0.01562500  0.64062500  0.40625000
   0.51562500  0.14062500  0.40625000
   0.51562500  0.64062500  0.40625000
   0.17187500  0.29687500  0.46875000
   0.17187500  0.79687500  0.46875000
   0.67187500  0.29687500  0.46875000
   0.67187500  0.79687500  0.46875000
   0.34279200  0.40917300  0.53212600
   0.34280300  0.90913800  0.53213200
   0.84276600  0.40926100  0.53214000
   0.84287500  0.90923400  0.53213200
   0.51315900  0.01054900  0.59867100
   0.51312600  0.51050900  0.59868400
   0.01312100  0.01049300  0.59868600
   0.01311400  0.51052300  0.59868100
   0.67075000  0.16813100  0.65299600
   0.66554300  0.16292400  0.68423600
 
 position of ions in cartesian coordinates  (Angst):
   0.48351219  0.68635716 15.00721591
   1.88971819  3.12673816 15.11498741
   3.30004819  0.68635716 15.11498741
   4.70625419  3.12673816 15.22275891
   1.80311906  1.44897622 17.37819422
   3.20932506  3.88935722 17.48596572
   4.61965506  1.44897622 17.48596572
   6.02586106  3.88935722 17.59373722
   3.08173507  1.99707603 19.77514791
   4.48790460  4.43728620 19.88313538
   5.89837210  1.99750554 19.88344878
   7.30511617  4.43775476 19.99094309
   2.92032973  0.05148716 22.17866019
   4.32623734  2.49167293 22.28689511
   0.10342218  0.05121384 22.07142130
   1.50967312  2.49174126 22.17901347
   4.25123669  0.82060740 24.24890101
   4.20726105  0.79519327 25.39809833
 


--------------------------------------------------------------------------------------------------------


 k-point   1 :   0.0000 0.0000 0.0000  plane waves:   19835
 k-point   2 :   0.5000 0.0000 0.0000  plane waves:   19792
 k-point   3 :   0.0000 0.5000 0.0000  plane waves:   19792
 k-point   4 :   0.5000 0.5000 0.0000  plane waves:   19772

 maximum and minimum number of plane-waves per node :      4977     4923

 maximum number of plane-waves:     19835
 maximum index in each direction: 
   IXMAX=    9   IYMAX=    9   IZMAX=   61
   IXMIN=   -9   IYMIN=   -9   IZMIN=  -61


 real space projection operators:
  total allocation   :       3835.55 KBytes
  max/ min on nodes  :        960.25        958.00


 parallel 3D FFT for wavefunctions:
    minimum data exchange during FFTs selected (reduces bandwidth)
 parallel 3D FFT for charge:
    minimum data exchange during FFTs selected (reduces bandwidth)


 total amount of memory used by VASP MPI-rank0    51204. kBytes
=======================================================================

   base      :      30000. kBytes
   nonlr-proj:       1713. kBytes
   fftplans  :       3961. kBytes
   grid      :       7034. kBytes
   one-center:         77. kBytes
   wavefun   :       8419. kBytes
 
     INWAV:  cpu time    0.0001: real time    0.0001
 Broyden mixing: mesh for mixing (old mesh)
   NGX = 19   NGY = 19   NGZ =123
  (NGX  = 56   NGY  = 56   NGZ  =384)
  gives a total of  44403 points

 initial charge density was supplied:
 charge density of overlapping atoms calculated
 number of electron     170.0000000 magnetization 
 keeping initial charge density in first step


--------------------------------------------------------------------------------------------------------


 Maximum index for non-local projection operator           437
 Maximum index for augmentation-charges           759 (set IRDMAX)


--------------------------------------------------------------------------------------------------------


 First call to EWALD:  gamma=   0.176
 Maximum number of real-space cells 5x 5x 1
 Maximum number of reciprocal cells 2x 2x 9

    FEWALD:  cpu time    0.0023: real time    0.0023


--------------------------------------- Iteration      1(   1)  ---------------------------------------


    POTLOK:  cpu time    0.1351: real time    0.1353
    SETDIJ:  cpu time    0.0099: real time    0.0099
     EDDAV:  cpu time    2.5057: real time    2.5137
       DOS:  cpu time    0.0015: real time    0.0015
    --------------------------------------------
      LOOP:  cpu time    2.6522: real time    2.6604

 eigenvalue-minimisations  :   848
 total energy-change (2. order) : 0.1140204E+04  (-0.6186560E+04)
 number of electron     170.0000000 magnetization 
 augmentation part      170.0000000 magnetization 

 Free energy of the ion-electron system (eV)
  ---------------------------------------------------
  alpha Z        PSCENC =       262.47990408
  Ewald energy   TEWEN  =    139515.27451951
  -Hartree energ DENC   =   -151929.25400856
  -exchange      EXHF   =         0.00000000
  -V(xc)+E(xc)   XCENC  =        86.53674229
  PAW double counting   =     11602.90403888   -11137.02028253
  entropy T*S    EENTRO =        -0.00475685
  eigenvalues    EBANDS =       506.69347122
  atomic energy  EATOM  =     12232.59423587
  Solvation  Ediel_sol  =         0.00000000
  ---------------------------------------------------
  free energy    TOTEN  =      1140.20386391 eV

  energy without entropy =     1140.20862076  energy(sigma->0) =     1140.20624234


--------------------------------------------------------------------------------------------------------




--------------------------------------- Iteration      1(   2)  ---------------------------------------


     EDDAV:  cpu time    3.0102: real time    3.0161
       DOS:  cpu time    0.0041: real time    0.0041
    --------------------------------------------
      LOOP:  cpu time    3.0142: real time    3.0202

 eigenvalue-minimisations  :  1072
 total energy-change (2. order) :-0.1135889E+04  (-0.1050647E+04)
 number of electron     170.0000000 magnetization 
 augmentation part      170.0000000 magnetization 

 Free energy of the ion-electron system (eV)
  ---------------------------------------------------
  alpha Z        PSCENC =       262.47990408
  Ewald energy   TEWEN  =    139515.27451951
  -Hartree energ DENC   =   -151929.25400856
  -exchange      EXHF   =         0.00000000
  -V(xc)+E(xc)   XCENC  =        86.53674229
  PAW double counting   =     11602.90403888   -11137.02028253
  entropy T*S    EENTRO =        -0.01896558
  eigenvalues    EBANDS =      -629.18100040
  atomic energy  EATOM  =     12232.59423587
  Solvation  Ediel_sol  =         0.00000000
  ---------------------------------------------------
  free energy    TOTEN  =         4.31518356 eV

  energy without entropy =        4.33414914  energy(sigma->0) =        4.32466635


--------------------------------------------------------------------------------------------------------




--------------------------------------- Iteration      1(   3)  ---------------------------------------


     EDDAV:  cpu time    2.8640: real time    2.8672
       DOS:  cpu time    0.0014: real time    0.0014
    --------------------------------------------
      LOOP:  cpu time    2.8654: real time    2.8686

 eigenvalue-minimisations  :  1008
 total energy-change (2. order) :-0.1065617E+03  (-0.9886641E+02)
 number of electron     170.0000000 magnetization 
 augmentation part      170.0000000 magnetization 

 Free energy of the ion-electron system (eV)
  ---------------------------------------------------
  alpha Z        PSCENC =       262.47990408
  Ewald energy   TEWEN  =    139515.27451951
  -Hartree energ DENC   =   -151929.25400856
  -exchange      EXHF   =         0.00000000
  -V(xc)+E(xc)   XCENC  =        86.53674229
  PAW double counting   =     11602.90403888   -11137.02028253
  entropy T*S    EENTRO =        -0.02749160
  eigenvalues    EBANDS =      -735.73413616
  atomic energy  EATOM  =     12232.59423587
  Solvation  Ediel_sol  =         0.00000000
  ---------------------------------------------------
  free energy    TOTEN  =      -102.24647822 eV

  energy without entropy =     -102.21898663  energy(sigma->0) =     -102.23273242


--------------------------------------------------------------------------------------------------------




--------------------------------------- Iteration      1(   4)  ---------------------------------------


     EDDAV:  cpu time    3.0405: real time    3.0465
       DOS:  cpu time    0.0015: real time    0.0015
    --------------------------------------------
      LOOP:  cpu time    3.0420: real time    3.0480

 eigenvalue-minimisations  :  1112
 total energy-change (2. order) :-0.4041929E+01  (-0.3839690E+01)
 number of electron     170.0000000 magnetization 
 augmentation part      170.0000000 magnetization 

 Free energy of the ion-electron system (eV)
  ---------------------------------------------------
  alpha Z        PSCENC =       262.47990408
  Ewald energy   TEWEN  =    139515.27451951
  -Hartree energ DENC   =   -151929.25400856
  -exchange      EXHF   =         0.00000000
  -V(xc)+E(xc)   XCENC  =        86.53674229
  PAW double counting   =     11602.90403888   -11137.02028253
  entropy T*S    EENTRO =        -0.03172290
  eigenvalues    EBANDS =      -739.77183364
  atomic energy  EATOM  =     12232.59423587
  Solvation  Ediel_sol  =         0.00000000
  ---------------------------------------------------
  free energy    TOTEN  =      -106.28840700 eV

  energy without entropy =     -106.25668410  energy(sigma->0) =     -106.27254555


--------------------------------------------------------------------------------------------------------




--------------------------------------- Iteration      1(   5)  ---------------------------------------


     EDDAV:  cpu time    2.9623: real time    2.9709
       DOS:  cpu time    0.0014: real time    0.0014
    CHARGE:  cpu time    0.1720: real time    0.1722
    MIXING:  cpu time    0.0026: real time    0.0026
    --------------------------------------------
      LOOP:  cpu time    3.1383: real time    3.1472

 eigenvalue-minimisations  :  1072
 total energy-change (2. order) :-0.1081850E+00  (-0.1068625E+00)
 number of electron     169.9999958 magnetization 
 augmentation part       47.5269858 magnetization 

 Broyden mixing:
  rms(total) = 0.36547E+01    rms(broyden)= 0.36546E+01
  rms(prec ) = 0.36900E+01
  weight for this iteration     100.00

 Free energy of the ion-electron system (eV)
  ---------------------------------------------------
  alpha Z        PSCENC =       262.47990408
  Ewald energy   TEWEN  =    139515.27451951
  -Hartree energ DENC   =   -151929.25400856
  -exchange      EXHF   =         0.00000000
  -V(xc)+E(xc)   XCENC  =        86.53674229
  PAW double counting   =     11602.90403888   -11137.02028253
  entropy T*S    EENTRO =        -0.03190827
  eigenvalues    EBANDS =      -739.87983328
  atomic energy  EATOM  =     12232.59423587
  Solvation  Ediel_sol  =         0.00000000
  ---------------------------------------------------
  free energy    TOTEN  =      -106.39659202 eV

  energy without entropy =     -106.36468375  energy(sigma->0) =     -106.38063788


--------------------------------------------------------------------------------------------------------




--------------------------------------- Iteration      1(   6)  ---------------------------------------


    POTLOK:  cpu time    0.1257: real time    0.1258
    SETDIJ:  cpu time    0.0104: real time    0.0104
     EDDAV:  cpu time    2.6554: real time    2.6612
       DOS:  cpu time    0.0012: real time    0.0012
    CHARGE:  cpu time    0.1682: real time    0.1711
    MIXING:  cpu time    0.0034: real time    0.0034
    --------------------------------------------
      LOOP:  cpu time    2.9643: real time    2.9731

 eigenvalue-minimisations  :   936
 total energy-change (2. order) :-0.6228219E+01  (-0.2693922E+01)
 number of electron     169.9999960 magnetization 
 augmentation part       49.6325347 magnetization 

 Broyden mixing:
  rms(total) = 0.45526E+01    rms(broyden)= 0.45525E+01
  rms(prec ) = 0.48952E+01
  weight for this iteration     100.00

 eigenvalues of (default mixing * dielectric matrix)
  average eigenvalue GAMMA=   0.0932
  0.0932

 Free energy of the ion-electron system (eV)
  ---------------------------------------------------
  alpha Z        PSCENC =       262.47990408
  Ewald energy   TEWEN  =    139515.27451951
  -Hartree energ DENC   =   -151561.73857870
  -exchange      EXHF   =         0.00000000
  -V(xc)+E(xc)   XCENC  =        84.77736162
  PAW double counting   =     12141.32638651   -11686.41417032
  entropy T*S    EENTRO =        -0.04574346
  eigenvalues    EBANDS =     -1100.87872583
  atomic energy  EATOM  =     12232.59423587
  Solvation  Ediel_sol  =         0.00000000
  ---------------------------------------------------
  free energy    TOTEN  =      -112.62481073 eV

  energy without entropy =     -112.57906727  energy(sigma->0) =     -112.60193900


--------------------------------------------------------------------------------------------------------




--------------------------------------- Iteration      1(   7)  ---------------------------------------


    POTLOK:  cpu time    0.1233: real time    0.1234
    SETDIJ:  cpu time    0.0096: real time    0.0096
     EDDAV:  cpu time    2.9079: real time    2.9113
       DOS:  cpu time    0.0042: real time    0.0042
    CHARGE:  cpu time    0.1777: real time    0.1778
    MIXING:  cpu time    0.0035: real time    0.0035
    --------------------------------------------
      LOOP:  cpu time    3.2261: real time    3.2298

 eigenvalue-minimisations  :  1064
 total energy-change (2. order) : 0.4740857E+01  (-0.2250865E+01)
 number of electron     169.9999962 magnetization 
 augmentation part       49.7608654 magnetization 

 Broyden mixing:
  rms(total) = 0.37662E+01    rms(broyden)= 0.37662E+01
  rms(prec ) = 0.41438E+01
  weight for this iteration     100.00

 eigenvalues of (default mixing * dielectric matrix)
  average eigenvalue GAMMA=   0.2349
  0.3173  0.1524

 Free energy of the ion-electron system (eV)
  ---------------------------------------------------
  alpha Z        PSCENC =       262.47990408
  Ewald energy   TEWEN  =    139515.27451951
  -Hartree energ DENC   =   -151647.82331214
  -exchange      EXHF   =         0.00000000
  -V(xc)+E(xc)   XCENC  =        84.70837814
  PAW double counting   =     12203.36785919   -11749.13904234
  entropy T*S    EENTRO =        -0.02686718
  eigenvalues    EBANDS =     -1009.31962865
  atomic energy  EATOM  =     12232.59423587
  Solvation  Ediel_sol  =         0.00000000
  ---------------------------------------------------
  free energy    TOTEN  =      -107.88395352 eV

  energy without entropy =     -107.85708635  energy(sigma->0) =     -107.87051993


--------------------------------------------------------------------------------------------------------




--------------------------------------- Iteration      1(   8)  ---------------------------------------


    POTLOK:  cpu time    0.1296: real time    0.1297
    SETDIJ:  cpu time    0.0098: real time    0.0098
     EDDAV:  cpu time    3.2312: real time    3.3122
       DOS:  cpu time    0.0013: real time    0.0013
    CHARGE:  cpu time    0.1621: real time    0.1623
    MIXING:  cpu time    0.0033: real time    0.0033
    --------------------------------------------
      LOOP:  cpu time    3.5373: real time    3.6186

 eigenvalue-minimisations  :  1264
 total energy-change (2. order) :-0.6475550E+02  (-0.1250623E+02)
 number of electron     169.9999953 magnetization 
 augmentation part       47.2504722 magnetization 

 Broyden mixing:
  rms(total) = 0.67490E+01    rms(broyden)= 0.67489E+01
  rms(prec ) = 0.83267E+01
  weight for this iteration     100.00

 eigenvalues of (default mixing * dielectric matrix)
  average eigenvalue GAMMA=   0.2225
  0.3886  0.2355  0.0435

 Free energy of the ion-electron system (eV)
  ---------------------------------------------------
  alpha Z        PSCENC =       262.47990408
  Ewald energy   TEWEN  =    139515.27451951
  -Hartree energ DENC   =   -151837.51745462
  -exchange      EXHF   =         0.00000000
  -V(xc)+E(xc)   XCENC  =        84.52142659
  PAW double counting   =     12371.11587494   -11918.83753111
  entropy T*S    EENTRO =        -0.01523298
  eigenvalues    EBANDS =      -882.25519953
  atomic energy  EATOM  =     12232.59423587
  Solvation  Ediel_sol  =         0.00000000
  ---------------------------------------------------
  free energy    TOTEN  =      -172.63945725 eV

  energy without entropy =     -172.62422427  energy(sigma->0) =     -172.63184076


--------------------------------------------------------------------------------------------------------




--------------------------------------- Iteration      1(   9)  ---------------------------------------


    POTLOK:  cpu time    0.1230: real time    0.1231
    SETDIJ:  cpu time    0.0099: real time    0.0099
     EDDAV:  cpu time    2.8035: real time    2.8117
       DOS:  cpu time    0.0014: real time    0.0014
    CHARGE:  cpu time    0.1628: real time    0.1629
    MIXING:  cpu time    0.0033: real time    0.0033
    --------------------------------------------
      LOOP:  cpu time    3.1038: real time    3.1123

 eigenvalue-minimisations  :  1016
 total energy-change (2. order) : 0.1808356E+02  (-0.3735920E+01)
 number of electron     169.9999950 magnetization 
 augmentation part       47.8115298 magnetization 

 Broyden mixing:
  rms(total) = 0.60684E+01    rms(broyden)= 0.60684E+01
  rms(prec ) = 0.74608E+01
  weight for this iteration     100.00

 eigenvalues of (default mixing * dielectric matrix)
  average eigenvalue GAMMA=   0.5983
  1.3987  0.5170  0.4107  0.0667

 Free energy of the ion-electron system (eV)
  ---------------------------------------------------
  alpha Z        PSCENC =       262.47990408
  Ewald energy   TEWEN  =    139515.27451951
  -Hartree energ DENC   =   -151833.72812854
  -exchange      EXHF   =         0.00000000
  -V(xc)+E(xc)   XCENC  =        84.12880893
  PAW double counting   =     12526.00420674   -12076.01712269
  entropy T*S    EENTRO =        -0.00939358
  eigenvalues    EBANDS =      -865.28292319
  atomic energy  EATOM  =     12232.59423587
  Solvation  Ediel_sol  =         0.00000000
  ---------------------------------------------------
  free energy    TOTEN  =      -154.55589288 eV

  energy without entropy =     -154.54649930  energy(sigma->0) =     -154.55119609


--------------------------------------------------------------------------------------------------------




--------------------------------------- Iteration      1(  10)  ---------------------------------------


    POTLOK:  cpu time    0.1186: real time    0.1187
    SETDIJ:  cpu time    0.0098: real time    0.0098
     EDDAV:  cpu time    2.6961: real time    2.7043
       DOS:  cpu time    0.0013: real time    0.0013
    CHARGE:  cpu time    0.1689: real time    0.1691
    MIXING:  cpu time    0.0034: real time    0.0034
    --------------------------------------------
      LOOP:  cpu time    2.9980: real time    3.0065

 eigenvalue-minimisations  :   960
 total energy-change (2. order) : 0.1653604E+01  (-0.3487674E+01)
 number of electron     169.9999946 magnetization 
 augmentation part       48.4493204 magnetization 

 Broyden mixing:
  rms(total) = 0.52965E+01    rms(broyden)= 0.52965E+01
  rms(prec ) = 0.69035E+01
  weight for this iteration     100.00

 eigenvalues of (default mixing * dielectric matrix)
  average eigenvalue GAMMA=   0.6564
  1.8194  0.7833  0.0662  0.3065  0.3065

 Free energy of the ion-electron system (eV)
  ---------------------------------------------------
  alpha Z        PSCENC =       262.47990408
  Ewald energy   TEWEN  =    139515.27451951
  -Hartree energ DENC   =   -152002.45729018
  -exchange      EXHF   =         0.00000000
  -V(xc)+E(xc)   XCENC  =        83.98046127
  PAW double counting   =     13036.51152504   -12595.91626739
  entropy T*S    EENTRO =        -0.03202971
  eigenvalues    EBANDS =      -685.33734727
  atomic energy  EATOM  =     12232.59423587
  Solvation  Ediel_sol  =         0.00000000
  ---------------------------------------------------
  free energy    TOTEN  =      -152.90228878 eV

  energy without entropy =     -152.87025907  energy(sigma->0) =     -152.88627392


--------------------------------------------------------------------------------------------------------




--------------------------------------- Iteration      1(  11)  ---------------------------------------


    POTLOK:  cpu time    0.1219: real time    0.1220
    SETDIJ:  cpu time    0.0095: real time    0.0095
     EDDAV:  cpu time    3.0035: real time    3.0070
       DOS:  cpu time    0.0012: real time    0.0012
    CHARGE:  cpu time    0.1667: real time    0.1668
    MIXING:  cpu time    0.0038: real time    0.0038
    --------------------------------------------
      LOOP:  cpu time    3.3065: real time    3.3103

 eigenvalue-minimisations  :  1096
 total energy-change (2. order) : 0.4666101E+02  (-0.5865342E+01)
 number of electron     169.9999950 magnetization 
 augmentation part       50.1513624 magnetization 

 Broyden mixing:
  rms(total) = 0.19973E+01    rms(broyden)= 0.19973E+01
  rms(prec ) = 0.22905E+01
  weight for this iteration     100.00

 eigenvalues of (default mixing * dielectric matrix)
  average eigenvalue GAMMA=   0.7495
  2.5617  0.6123  0.6123  0.0663  0.3221  0.3221

 Free energy of the ion-electron system (eV)
  ---------------------------------------------------
  alpha Z        PSCENC =       262.47990408
  Ewald energy   TEWEN  =    139515.27451951
  -Hartree energ DENC   =   -151908.18445560
  -exchange      EXHF   =         0.00000000
  -V(xc)+E(xc)   XCENC  =        83.46913258
  PAW double counting   =     13281.53050372   -12845.30332856
  entropy T*S    EENTRO =        -0.03511686
  eigenvalues    EBANDS =      -728.06667515
  atomic energy  EATOM  =     12232.59423587
  Solvation  Ediel_sol  =         0.00000000
  ---------------------------------------------------
  free energy    TOTEN  =      -106.24128041 eV

  energy without entropy =     -106.20616355  energy(sigma->0) =     -106.22372198


--------------------------------------------------------------------------------------------------------




--------------------------------------- Iteration      1(  12)  ---------------------------------------


    POTLOK:  cpu time    0.1254: real time    0.1256
    SETDIJ:  cpu time    0.0098: real time    0.0098
     EDDAV:  cpu time    2.5474: real time    2.5529
       DOS:  cpu time    0.0015: real time    0.0015
    CHARGE:  cpu time    0.1694: real time    0.1696
    MIXING:  cpu time    0.0037: real time    0.0037
    --------------------------------------------
      LOOP:  cpu time    2.8572: real time    2.8631

 eigenvalue-minimisations  :   888
 total energy-change (2. order) : 0.3455252E+01  (-0.3040570E+01)
 number of electron     169.9999960 magnetization 
 augmentation part       50.8966433 magnetization 

 Broyden mixing:
  rms(total) = 0.22925E+01    rms(broyden)= 0.22924E+01
  rms(prec ) = 0.24751E+01
  weight for this iteration     100.00

 eigenvalues of (default mixing * dielectric matrix)
  average eigenvalue GAMMA=   0.8628
  3.6983  0.5599  0.5599  0.5914  0.0663  0.2820  0.2820

 Free energy of the ion-electron system (eV)
  ---------------------------------------------------
  alpha Z        PSCENC =       262.47990408
  Ewald energy   TEWEN  =    139515.27451951
  -Hartree energ DENC   =   -151809.68135513
  -exchange      EXHF   =         0.00000000
  -V(xc)+E(xc)   XCENC  =        83.01779857
  PAW double counting   =     13658.34617268   -13225.61600349
  entropy T*S    EENTRO =        -0.03354232
  eigenvalues    EBANDS =      -819.16775850
  atomic energy  EATOM  =     12232.59423587
  Solvation  Ediel_sol  =         0.00000000
  ---------------------------------------------------
  free energy    TOTEN  =      -102.78602873 eV

  energy without entropy =     -102.75248641  energy(sigma->0) =     -102.76925757


--------------------------------------------------------------------------------------------------------




--------------------------------------- Iteration      1(  13)  ---------------------------------------


    POTLOK:  cpu time    0.1273: real time    0.1275
    SETDIJ:  cpu time    0.0126: real time    0.0126
     EDDAV:  cpu time    2.7145: real time    2.7229
       DOS:  cpu time    0.0010: real time    0.0010
    CHARGE:  cpu time    0.1688: real time    0.1689
    MIXING:  cpu time    0.0042: real time    0.0042
    --------------------------------------------
      LOOP:  cpu time    3.0285: real time    3.0371

 eigenvalue-minimisations  :   968
 total energy-change (2. order) : 0.1093999E+01  (-0.1022349E+01)
 number of electron     169.9999957 magnetization 
 augmentation part       51.1461478 magnetization 

 Broyden mixing:
  rms(total) = 0.14616E+01    rms(broyden)= 0.14616E+01
  rms(prec ) = 0.15372E+01
  weight for this iteration     100.00

 eigenvalues of (default mixing * dielectric matrix)
  average eigenvalue GAMMA=   0.9208
  4.2444  0.8898  0.6263  0.6263  0.0663  0.2948  0.2948  0.3238

 Free energy of the ion-electron system (eV)
  ---------------------------------------------------
  alpha Z        PSCENC =       262.47990408
  Ewald energy   TEWEN  =    139515.27451951
  -Hartree energ DENC   =   -151800.14603432
  -exchange      EXHF   =         0.00000000
  -V(xc)+E(xc)   XCENC  =        82.60737588
  PAW double counting   =     14155.55273311   -13727.83540844
  entropy T*S    EENTRO =        -0.04059304
  eigenvalues    EBANDS =      -822.17876272
  atomic energy  EATOM  =     12232.59423587
  Solvation  Ediel_sol  =         0.00000000
  ---------------------------------------------------
  free energy    TOTEN  =      -101.69203008 eV

  energy without entropy =     -101.65143703  energy(sigma->0) =     -101.67173355


--------------------------------------------------------------------------------------------------------




--------------------------------------- Iteration      1(  14)  ---------------------------------------


    POTLOK:  cpu time    0.1187: real time    0.1215
    SETDIJ:  cpu time    0.0098: real time    0.0098
     EDDAV:  cpu time    2.6729: real time    2.6757
       DOS:  cpu time    0.0011: real time    0.0011
    CHARGE:  cpu time    0.1443: real time    0.1444
    MIXING:  cpu time    0.0043: real time    0.0043
    --------------------------------------------
      LOOP:  cpu time    2.9511: real time    2.9569

 eigenvalue-minimisations  :   960
 total energy-change (2. order) :-0.2385148E+00  (-0.8105624E+00)
 number of electron     169.9999957 magnetization 
 augmentation part       50.9816833 magnetization 

 Broyden mixing:
  rms(total) = 0.15458E+01    rms(broyden)= 0.15457E+01
  rms(prec ) = 0.18268E+01
  weight for this iteration     100.00

 eigenvalues of (default mixing * dielectric matrix)
  average eigenvalue GAMMA=   0.8652
  4.1712  0.9239  0.6675  0.6675  0.0663  0.3588  0.3588  0.2866  0.2866

 Free energy of the ion-electron system (eV)
  ---------------------------------------------------
  alpha Z        PSCENC =       262.47990408
  Ewald energy   TEWEN  =    139515.27451951
  -Hartree energ DENC   =   -151821.53673289
  -exchange      EXHF   =         0.00000000
  -V(xc)+E(xc)   XCENC  =        82.47361657
  PAW double counting   =     14434.32821814   -14009.14522141
  entropy T*S    EENTRO =        -0.03152345
  eigenvalues    EBANDS =      -798.36756129
  atomic energy  EATOM  =     12232.59423587
  Solvation  Ediel_sol  =         0.00000000
  ---------------------------------------------------
  free energy    TOTEN  =      -101.93054487 eV

  energy without entropy =     -101.89902142  energy(sigma->0) =     -101.91478315


--------------------------------------------------------------------------------------------------------




--------------------------------------- Iteration      1(  15)  ---------------------------------------


    POTLOK:  cpu time    0.1132: real time    0.1160
    SETDIJ:  cpu time    0.0172: real time    0.0172
     EDDAV:  cpu time    2.5822: real time    2.5905
       DOS:  cpu time    0.0011: real time    0.0011
    CHARGE:  cpu time    0.1539: real time    0.1540
    MIXING:  cpu time    0.0039: real time    0.0039
    --------------------------------------------
      LOOP:  cpu time    2.8713: real time    2.8826

 eigenvalue-minimisations  :   920
 total energy-change (2. order) : 0.7298604E+00  (-0.5341593E+00)
 number of electron     169.9999952 magnetization 
 augmentation part       50.9314727 magnetization 

 Broyden mixing:
  rms(total) = 0.97631E+00    rms(broyden)= 0.97626E+00
  rms(prec ) = 0.10558E+01
  weight for this iteration     100.00

 eigenvalues of (default mixing * dielectric matrix)
  average eigenvalue GAMMA=   0.8271
  4.2784  0.7438  0.7438  0.7590  0.0663  0.4253  0.4253  0.2929  0.2929  0.2436

 Free energy of the ion-electron system (eV)
  ---------------------------------------------------
  alpha Z        PSCENC =       262.47990408
  Ewald energy   TEWEN  =    139515.27451951
  -Hartree energ DENC   =   -151807.85542059
  -exchange      EXHF   =         0.00000000
  -V(xc)+E(xc)   XCENC  =        82.49495464
  PAW double counting   =     14430.24602374   -14004.72255606
  entropy T*S    EENTRO =        -0.04702574
  eigenvalues    EBANDS =      -811.66531987
  atomic energy  EATOM  =     12232.59423587
  Solvation  Ediel_sol  =         0.00000000
  ---------------------------------------------------
  free energy    TOTEN  =      -101.20068442 eV

  energy without entropy =     -101.15365868  energy(sigma->0) =     -101.17717155


--------------------------------------------------------------------------------------------------------




--------------------------------------- Iteration      1(  16)  ---------------------------------------


    POTLOK:  cpu time    0.1161: real time    0.1162
    SETDIJ:  cpu time    0.0097: real time    0.0097
     EDDAV:  cpu time    2.6364: real time    2.6393
       DOS:  cpu time    0.0008: real time    0.0008
    CHARGE:  cpu time    0.1651: real time    0.1653
    MIXING:  cpu time    0.0044: real time    0.0044
    --------------------------------------------
      LOOP:  cpu time    2.9325: real time    2.9356

 eigenvalue-minimisations  :   920
 total energy-change (2. order) :-0.8467916E-01  (-0.1555351E+00)
 number of electron     169.9999952 magnetization 
 augmentation part       50.8892600 magnetization 

 Broyden mixing:
  rms(total) = 0.10273E+01    rms(broyden)= 0.10273E+01
  rms(prec ) = 0.12460E+01
  weight for this iteration     100.00

 eigenvalues of (default mixing * dielectric matrix)
  average eigenvalue GAMMA=   0.7936
  4.2906  0.8204  0.8204  0.5594  0.5594  0.0663  0.3887  0.3887  0.2787  0.2787
  0.2783

 Free energy of the ion-electron system (eV)
  ---------------------------------------------------
  alpha Z        PSCENC =       262.47990408
  Ewald energy   TEWEN  =    139515.27451951
  -Hartree energ DENC   =   -151811.04889677
  -exchange      EXHF   =         0.00000000
  -V(xc)+E(xc)   XCENC  =        82.46585137
  PAW double counting   =     14512.52565527   -14087.30720247
  entropy T*S    EENTRO =        -0.03099871
  eigenvalues    EBANDS =      -808.23843172
  atomic energy  EATOM  =     12232.59423587
  Solvation  Ediel_sol  =         0.00000000
  ---------------------------------------------------
  free energy    TOTEN  =      -101.28536359 eV

  energy without entropy =     -101.25436488  energy(sigma->0) =     -101.26986423


--------------------------------------------------------------------------------------------------------




--------------------------------------- Iteration      1(  17)  ---------------------------------------


    POTLOK:  cpu time    0.1231: real time    0.1232
    SETDIJ:  cpu time    0.0108: real time    0.0108
     EDDAV:  cpu time    2.6024: real time    2.6055
       DOS:  cpu time    0.0014: real time    0.0014
    CHARGE:  cpu time    0.1529: real time    0.1531
    MIXING:  cpu time    0.0045: real time    0.0045
    --------------------------------------------
      LOOP:  cpu time    2.8951: real time    2.8984

 eigenvalue-minimisations  :   928
 total energy-change (2. order) : 0.2524137E+00  (-0.1194872E-01)
 number of electron     169.9999953 magnetization 
 augmentation part       50.8755015 magnetization 

 Broyden mixing:
  rms(total) = 0.97082E+00    rms(broyden)= 0.97082E+00
  rms(prec ) = 0.12184E+01
  weight for this iteration     100.00

 eigenvalues of (default mixing * dielectric matrix)
  average eigenvalue GAMMA=   0.8572
  4.1550  1.2139  1.2139  0.8187  0.5671  0.5671  0.0663  0.4268  0.4268  0.2842
  0.2842  0.2627

 Free energy of the ion-electron system (eV)
  ---------------------------------------------------
  alpha Z        PSCENC =       262.47990408
  Ewald energy   TEWEN  =    139515.27451951
  -Hartree energ DENC   =   -151807.03623902
  -exchange      EXHF   =         0.00000000
  -V(xc)+E(xc)   XCENC  =        82.52748907
  PAW double counting   =     14537.94711911   -14112.47957521
  entropy T*S    EENTRO =        -0.03917408
  eigenvalues    EBANDS =      -812.30122926
  atomic energy  EATOM  =     12232.59423587
  Solvation  Ediel_sol  =         0.00000000
  ---------------------------------------------------
  free energy    TOTEN  =      -101.03294993 eV

  energy without entropy =     -100.99377586  energy(sigma->0) =     -101.01336290


--------------------------------------------------------------------------------------------------------




--------------------------------------- Iteration      1(  18)  ---------------------------------------


    POTLOK:  cpu time    0.1236: real time    0.1237
    SETDIJ:  cpu time    0.0123: real time    0.0123
     EDDAV:  cpu time    2.9807: real time    2.9840
       DOS:  cpu time    0.0013: real time    0.0013
    CHARGE:  cpu time    0.1696: real time    0.1697
    MIXING:  cpu time    0.0049: real time    0.0049
    --------------------------------------------
      LOOP:  cpu time    3.2925: real time    3.2960

 eigenvalue-minimisations  :  1096
 total energy-change (2. order) : 0.5193666E+00  (-0.3416983E+00)
 number of electron     169.9999953 magnetization 
 augmentation part       51.0057263 magnetization 

 Broyden mixing:
  rms(total) = 0.10119E+01    rms(broyden)= 0.10118E+01
  rms(prec ) = 0.10463E+01
  weight for this iteration     100.00

 eigenvalues of (default mixing * dielectric matrix)
  average eigenvalue GAMMA=   0.9204
  4.4934  1.6996  1.6996  0.8519  0.5968  0.5968  0.0663  0.4060  0.4060  0.2811
  0.2811  0.2932  0.2932

 Free energy of the ion-electron system (eV)
  ---------------------------------------------------
  alpha Z        PSCENC =       262.47990408
  Ewald energy   TEWEN  =    139515.27451951
  -Hartree energ DENC   =   -151783.62848078
  -exchange      EXHF   =         0.00000000
  -V(xc)+E(xc)   XCENC  =        82.64341373
  PAW double counting   =     14558.78237387   -14132.47345347
  entropy T*S    EENTRO =        -0.02030879
  eigenvalues    EBANDS =      -836.16578734
  atomic energy  EATOM  =     12232.59423587
  Solvation  Ediel_sol  =         0.00000000
  ---------------------------------------------------
  free energy    TOTEN  =      -100.51358332 eV

  energy without entropy =     -100.49327453  energy(sigma->0) =     -100.50342893


--------------------------------------------------------------------------------------------------------




--------------------------------------- Iteration      1(  19)  ---------------------------------------


    POTLOK:  cpu time    0.1231: real time    0.1232
    SETDIJ:  cpu time    0.0096: real time    0.0096
     EDDAV:  cpu time    2.5374: real time    2.5403
       DOS:  cpu time    0.0013: real time    0.0013
    CHARGE:  cpu time    0.1732: real time    0.1734
    MIXING:  cpu time    0.0049: real time    0.0049
    --------------------------------------------
      LOOP:  cpu time    2.8496: real time    2.8527

 eigenvalue-minimisations  :   904
 total energy-change (2. order) : 0.5346732E+00  (-0.6090391E-01)
 number of electron     169.9999956 magnetization 
 augmentation part       50.9290652 magnetization 

 Broyden mixing:
  rms(total) = 0.69377E+00    rms(broyden)= 0.69375E+00
  rms(prec ) = 0.70793E+00
  weight for this iteration     100.00

 eigenvalues of (default mixing * dielectric matrix)
  average eigenvalue GAMMA=   0.9073
  4.4621  1.9150  1.9150  0.5987  0.5987  0.7159  0.0663  0.3979  0.3979  0.3987
  0.3987  0.2825  0.2825  0.2721

 Free energy of the ion-electron system (eV)
  ---------------------------------------------------
  alpha Z        PSCENC =       262.47990408
  Ewald energy   TEWEN  =    139515.27451951
  -Hartree energ DENC   =   -151767.19276160
  -exchange      EXHF   =         0.00000000
  -V(xc)+E(xc)   XCENC  =        82.72026488
  PAW double counting   =     14731.51261518   -14305.14517431
  entropy T*S    EENTRO =        -0.04240550
  eigenvalues    EBANDS =      -852.18010826
  atomic energy  EATOM  =     12232.59423587
  Solvation  Ediel_sol  =         0.00000000
  ---------------------------------------------------
  free energy    TOTEN  =       -99.97891015 eV

  energy without entropy =      -99.93650465  energy(sigma->0) =      -99.95770740


--------------------------------------------------------------------------------------------------------




--------------------------------------- Iteration      1(  20)  ---------------------------------------


    POTLOK:  cpu time    0.1230: real time    0.1231
    SETDIJ:  cpu time    0.0097: real time    0.0097
     EDDAV:  cpu time    2.5954: real time    2.5982
       DOS:  cpu time    0.0013: real time    0.0013
    CHARGE:  cpu time    0.1728: real time    0.1730
    MIXING:  cpu time    0.0055: real time    0.0055
    --------------------------------------------
      LOOP:  cpu time    2.9077: real time    2.9109

 eigenvalue-minimisations  :   928
 total energy-change (2. order) : 0.8767307E-01  (-0.1245082E-01)
 number of electron     169.9999956 magnetization 
 augmentation part       50.8861774 magnetization 

 Broyden mixing:
  rms(total) = 0.60875E+00    rms(broyden)= 0.60874E+00
  rms(prec ) = 0.61836E+00
  weight for this iteration     100.00

 eigenvalues of (default mixing * dielectric matrix)
  average eigenvalue GAMMA=   0.8981
  4.3805  2.0739  2.0739  0.6172  0.6172  0.5561  0.5561  0.0663  0.5413  0.4345
  0.4345  0.2816  0.2816  0.2782  0.2782

 Free energy of the ion-electron system (eV)
  ---------------------------------------------------
  alpha Z        PSCENC =       262.47990408
  Ewald energy   TEWEN  =    139515.27451951
  -Hartree energ DENC   =   -151758.86413054
  -exchange      EXHF   =         0.00000000
  -V(xc)+E(xc)   XCENC  =        82.74835843
  PAW double counting   =     14770.81966478   -14344.09995423
  entropy T*S    EENTRO =        -0.04331686
  eigenvalues    EBANDS =      -860.80051812
  atomic energy  EATOM  =     12232.59423587
  Solvation  Ediel_sol  =         0.00000000
  ---------------------------------------------------
  free energy    TOTEN  =       -99.89123708 eV

  energy without entropy =      -99.84792022  energy(sigma->0) =      -99.86957865


--------------------------------------------------------------------------------------------------------




--------------------------------------- Iteration      1(  21)  ---------------------------------------


    POTLOK:  cpu time    0.1286: real time    0.1287
    SETDIJ:  cpu time    0.0100: real time    0.0100
     EDDAV:  cpu time    2.6144: real time    2.6200
       DOS:  cpu time    0.0014: real time    0.0014
    CHARGE:  cpu time    0.1710: real time    0.1712
    MIXING:  cpu time    0.0058: real time    0.0058
    --------------------------------------------
      LOOP:  cpu time    2.9312: real time    2.9371

 eigenvalue-minimisations  :   936
 total energy-change (2. order) : 0.4959792E-01  (-0.6485941E-02)
 number of electron     169.9999956 magnetization 
 augmentation part       50.8601262 magnetization 

 Broyden mixing:
  rms(total) = 0.56645E+00    rms(broyden)= 0.56645E+00
  rms(prec ) = 0.57530E+00
  weight for this iteration     100.00

 eigenvalues of (default mixing * dielectric matrix)
  average eigenvalue GAMMA=   0.9193
  4.4572  2.2125  2.2125  0.7965  0.7965  0.5982  0.5982  0.6769  0.0663  0.4094
  0.4094  0.2815  0.2815  0.3215  0.3215  0.2686

 Free energy of the ion-electron system (eV)
  ---------------------------------------------------
  alpha Z        PSCENC =       262.47990408
  Ewald energy   TEWEN  =    139515.27451951
  -Hartree energ DENC   =   -151754.12659983
  -exchange      EXHF   =         0.00000000
  -V(xc)+E(xc)   XCENC  =        82.75237706
  PAW double counting   =     14790.95058170   -14363.97382853
  entropy T*S    EENTRO =        -0.03910852
  eigenvalues    EBANDS =      -865.75372050
  atomic energy  EATOM  =     12232.59423587
  Solvation  Ediel_sol  =         0.00000000
  ---------------------------------------------------
  free energy    TOTEN  =       -99.84163916 eV

  energy without entropy =      -99.80253064  energy(sigma->0) =      -99.82208490


--------------------------------------------------------------------------------------------------------




--------------------------------------- Iteration      1(  22)  ---------------------------------------


    POTLOK:  cpu time    0.1250: real time    0.1251
    SETDIJ:  cpu time    0.0139: real time    0.0139
     EDDAV:  cpu time    2.6139: real time    2.6168
       DOS:  cpu time    0.0013: real time    0.0013
    CHARGE:  cpu time    0.1704: real time    0.1706
    MIXING:  cpu time    0.0074: real time    0.0074
    --------------------------------------------
      LOOP:  cpu time    2.9318: real time    2.9350

 eigenvalue-minimisations  :   928
 total energy-change (2. order) : 0.4608259E-01  (-0.1020248E-01)
 number of electron     169.9999958 magnetization 
 augmentation part       50.8624741 magnetization 

 Broyden mixing:
  rms(total) = 0.49100E+00    rms(broyden)= 0.49099E+00
  rms(prec ) = 0.50010E+00
  weight for this iteration     100.00

 eigenvalues of (default mixing * dielectric matrix)
  average eigenvalue GAMMA=   0.9181
  4.4779  2.3188  2.3188  0.9654  0.9654  0.5985  0.5985  0.6444  0.0663  0.4120
  0.4120  0.2812  0.2812  0.3517  0.3517  0.2966  0.2674

 Free energy of the ion-electron system (eV)
  ---------------------------------------------------
  alpha Z        PSCENC =       262.47990408
  Ewald energy   TEWEN  =    139515.27451951
  -Hartree energ DENC   =   -151752.41529617
  -exchange      EXHF   =         0.00000000
  -V(xc)+E(xc)   XCENC  =        82.74390756
  PAW double counting   =     14821.15692549   -14394.09430403
  entropy T*S    EENTRO =        -0.04368412
  eigenvalues    EBANDS =      -867.49176475
  atomic energy  EATOM  =     12232.59423587
  Solvation  Ediel_sol  =         0.00000000
  ---------------------------------------------------
  free energy    TOTEN  =       -99.79555657 eV

  energy without entropy =      -99.75187245  energy(sigma->0) =      -99.77371451


--------------------------------------------------------------------------------------------------------




--------------------------------------- Iteration      1(  23)  ---------------------------------------


    POTLOK:  cpu time    0.1226: real time    0.1227
    SETDIJ:  cpu time    0.0094: real time    0.0094
     EDDAV:  cpu time    2.7194: real time    2.7224
       DOS:  cpu time    0.0013: real time    0.0013
    CHARGE:  cpu time    0.1704: real time    0.1706
    MIXING:  cpu time    0.0066: real time    0.0066
    --------------------------------------------
      LOOP:  cpu time    3.0297: real time    3.0330

 eigenvalue-minimisations  :   984
 total energy-change (2. order) : 0.1729081E-01  (-0.6158355E-02)
 number of electron     169.9999956 magnetization 
 augmentation part       50.8603085 magnetization 

 Broyden mixing:
  rms(total) = 0.48456E+00    rms(broyden)= 0.48456E+00
  rms(prec ) = 0.49259E+00
  weight for this iteration     100.00

 eigenvalues of (default mixing * dielectric matrix)
  average eigenvalue GAMMA=   1.0462
  4.8179  3.1113  3.1113  1.1699  1.1699  0.6041  0.6041  0.7467  0.7467  0.0663
  0.4177  0.4177  0.4450  0.2811  0.2811  0.2896  0.2896  0.2619

 Free energy of the ion-electron system (eV)
  ---------------------------------------------------
  alpha Z        PSCENC =       262.47990408
  Ewald energy   TEWEN  =    139515.27451951
  -Hartree energ DENC   =   -151747.69791916
  -exchange      EXHF   =         0.00000000
  -V(xc)+E(xc)   XCENC  =        82.74200076
  PAW double counting   =     14837.46974032   -14410.28749190
  entropy T*S    EENTRO =        -0.03912663
  eigenvalues    EBANDS =      -872.31412859
  atomic energy  EATOM  =     12232.59423587
[...]
     26      -5.6674      2.00000
     27      -5.6508      2.00000
     28      -5.6460      2.00000
     29      -5.5768      2.00000
     30      -5.5628      2.00000
     31      -5.5002      2.00000
     32      -5.3111      2.00000
     33      -5.2740      2.00000
     34      -5.2044      2.00000
     35      -5.1244      2.00000
     36      -4.9907      2.00000
     37      -4.9671      2.00000
     38      -4.9599      2.00000
     39      -4.8879      2.00000
     40      -4.7972      2.00000
     41      -4.7520      2.00000
     42      -4.7162      2.00000
     43      -4.6485      2.00000
     44      -4.5845      2.00000
     45      -4.5223      2.00000
     46      -4.4531      2.00000
     47      -4.4258      2.00000
     48      -4.3942      2.00000
     49      -4.2994      2.00000
     50      -4.2969      2.00000
     51      -4.2322      2.00000
     52      -4.1884      2.00000
     53      -4.1382      2.00000
     54      -4.0870      2.00000
     55      -4.0631      2.00000
     56      -3.9658      2.00000
     57      -3.7842      2.00000
     58      -3.6857      2.00000
     59      -3.6399      2.00000
     60      -3.5984      2.00000
     61      -3.5591      2.00000
     62      -3.4705      2.00000
     63      -3.4223      2.00000
     64      -3.4030      2.00000
     65      -3.2415      2.00000
     66      -3.1823      2.00000
     67      -3.1363      2.00000
     68      -3.0909      2.00000
     69      -3.0220      2.00000
     70      -2.9731      2.00000
     71      -2.9010      2.00000
     72      -2.8933      2.00000
     73      -2.8542      2.00000
     74      -2.8245      2.00000
     75      -2.7525      2.00000
     76      -2.7206      2.00000
     77      -2.6274      2.00000
     78      -2.6187      2.00000
     79      -2.2963      2.00000
     80      -2.2081      2.00000
     81      -2.1106      2.00000
     82      -2.0803      2.00000
     83      -1.8898      2.00000
     84      -1.7820      2.00000
     85      -1.6692      2.00000
     86      -1.6268      1.99933
     87      -1.5553      1.83246
     88      -1.5233      1.36577
     89      -1.4693      0.29340
     90      -1.4503      0.11198
     91      -0.7236      0.00000
     92       0.0010      0.00000
     93       0.2997      0.00000
     94       0.3280      0.00000
     95       0.4557      0.00000
     96       0.6892      0.00000
     97       1.1758      0.00000
     98       1.2697      0.00000
     99       1.6916      0.00000
    100       2.1590      0.00000
    101       2.6062      0.00000
    102       3.1034      0.00000
    103       3.5813      0.00000
    104       3.9295      0.00000

 k-point     4 :       0.5000    0.5000    0.0000
  band No.  band energies     occupation 
      1     -24.2972      2.00000
      2     -11.1518      2.00000
      3      -8.6603      2.00000
      4      -8.5784      2.00000
      5      -8.3022      2.00000
      6      -7.8708      2.00000
      7      -7.5739      2.00000
      8      -7.4407      2.00000
      9      -7.3675      2.00000
     10      -6.9962      2.00000
     11      -6.9159      2.00000
     12      -6.7825      2.00000
     13      -6.7015      2.00000
     14      -6.6681      2.00000
     15      -6.6045      2.00000
     16      -6.5896      2.00000
     17      -6.4837      2.00000
     18      -6.3718      2.00000
     19      -6.3412      2.00000
     20      -6.1842      2.00000
     21      -6.0960      2.00000
     22      -6.0307      2.00000
     23      -5.9856      2.00000
     24      -5.9610      2.00000
     25      -5.8992      2.00000
     26      -5.7155      2.00000
     27      -5.6664      2.00000
     28      -5.6371      2.00000
     29      -5.6011      2.00000
     30      -5.5803      2.00000
     31      -5.5691      2.00000
     32      -5.3845      2.00000
     33      -5.2984      2.00000
     34      -5.2295      2.00000
     35      -5.2002      2.00000
     36      -5.1331      2.00000
     37      -5.0269      2.00000
     38      -5.0077      2.00000
     39      -4.9737      2.00000
     40      -4.8883      2.00000
     41      -4.8233      2.00000
     42      -4.6993      2.00000
     43      -4.6788      2.00000
     44      -4.5919      2.00000
     45      -4.5433      2.00000
     46      -4.5102      2.00000
     47      -4.4473      2.00000
     48      -4.3867      2.00000
     49      -4.3432      2.00000
     50      -4.3151      2.00000
     51      -4.2232      2.00000
     52      -4.1999      2.00000
     53      -4.1317      2.00000
     54      -4.0542      2.00000
     55      -3.9970      2.00000
     56      -3.9322      2.00000
     57      -3.7617      2.00000
     58      -3.6810      2.00000
     59      -3.6404      2.00000
     60      -3.6101      2.00000
     61      -3.5128      2.00000
     62      -3.4187      2.00000
     63      -3.3611      2.00000
     64      -3.2837      2.00000
     65      -3.2053      2.00000
     66      -3.1982      2.00000
     67      -3.1709      2.00000
     68      -3.1103      2.00000
     69      -3.0612      2.00000
     70      -3.0130      2.00000
     71      -2.9886      2.00000
     72      -2.9738      2.00000
     73      -2.8509      2.00000
     74      -2.8472      2.00000
     75      -2.7829      2.00000
     76      -2.6845      2.00000
     77      -2.6468      2.00000
     78      -2.5591      2.00000
     79      -2.3008      2.00000
     80      -2.1742      2.00000
     81      -2.1414      2.00000
     82      -2.0906      2.00000
     83      -1.8113      2.00000
     84      -1.7771      2.00000
     85      -1.7533      2.00000
     86      -1.6801      2.00000
     87      -1.6298      1.99951
     88      -1.4964      0.77508
     89      -1.3183      0.00000
     90      -1.2976      0.00000
     91      -0.4114      0.00000
     92       0.1620      0.00000
     93       0.3045      0.00000
     94       0.3546      0.00000
     95       0.4900      0.00000
     96       0.7271      0.00000
     97       1.1726      0.00000
     98       1.2405      0.00000
     99       1.8060      0.00000
    100       2.0859      0.00000
    101       2.5238      0.00000
    102       3.1878      0.00000
    103       3.6658      0.00000
    104       3.9285      0.00000


--------------------------------------------------------------------------------------------------------


 soft charge-density along one line, spin component            1
         0         1         2         3         4         5         6         7         8         9
 total charge-density along one line
 
 pseudopotential strength for first ion, spin component:            1
 -7.194  -0.009  -0.001  -0.016   0.000  -7.275  -0.009  -0.001
 -0.009  -7.022  -0.002   0.002  -0.005  -0.009  -7.107  -0.002
 -0.001  -0.002  -7.016  -0.004   0.000  -0.001  -0.002  -7.102
 -0.016   0.002  -0.004  -7.027  -0.008  -0.015   0.002  -0.004
  0.000  -0.005   0.000  -0.008  -7.195   0.000  -0.005   0.000
 -7.275  -0.009  -0.001  -0.015   0.000  -7.340  -0.008  -0.001
 -0.009  -7.107  -0.002   0.002  -0.005  -0.008  -7.177  -0.002
 -0.001  -0.002  -7.102  -0.004   0.000  -0.001  -0.002  -7.172
 -0.015   0.002  -0.004  -7.112  -0.007  -0.015   0.002  -0.004
  0.000  -0.005   0.000  -0.007  -7.276   0.000  -0.005   0.000
 -0.001   0.003  -0.049   0.005   0.001  -0.001   0.003  -0.048
 -0.001   0.005  -0.072   0.007   0.001  -0.001   0.005  -0.071
 -0.000  -0.002  -0.000   0.000  -0.000  -0.000  -0.002  -0.000
  0.000   0.001  -0.006  -0.000   0.000   0.000   0.001  -0.005
  0.001   0.000   0.000  -0.002  -0.000   0.001   0.000   0.000
 -0.001  -0.000  -0.000   0.000  -0.000  -0.001   0.000  -0.000
  0.000   0.001  -0.005  -0.000   0.000   0.000   0.001  -0.005
  0.001   0.000   0.001  -0.000  -0.001   0.001   0.000   0.001
 total augmentation occupancy for first ion, spin component:            1
  2.438  -0.087   0.008  -0.254   0.006  -1.472   0.046  -0.013   0.060   0.003   0.011  -0.005   0.005   0.003  -0.048   0.000
 -0.087   4.388  -0.033   0.040  -0.141   0.045  -2.376   0.033  -0.033   0.010  -0.066   0.009  -0.229   0.021  -0.001   0.010
  0.008  -0.033   3.945  -0.082  -0.029  -0.014   0.034  -2.410   0.078   0.026   0.963  -0.177  -0.009  -0.280  -0.007   0.001
 -0.254   0.040  -0.082   4.234  -0.034   0.070  -0.033   0.077  -2.280   0.009  -0.090   0.017   0.004   0.032  -0.218  -0.001
  0.006  -0.141  -0.029  -0.034   2.434   0.003  -0.002   0.025   0.012  -1.473  -0.015   0.004  -0.067   0.004   0.005   0.005
 -1.472   0.045  -0.014   0.070   0.003   2.109  -0.017   0.017   0.069  -0.011  -0.007   0.002  -0.008   0.001   0.045   0.002
  0.046  -2.376   0.034  -0.033  -0.002  -0.017   2.262  -0.035   0.029   0.091   0.047  -0.003   0.227  -0.017   0.003  -0.017
 -0.013   0.033  -2.410   0.077   0.025   0.017  -0.035   2.645  -0.077  -0.026  -0.748   0.082   0.005   0.340   0.008   0.000
  0.060  -0.033   0.078  -2.280   0.012   0.069   0.029  -0.077   2.208   0.006   0.060  -0.004   0.000  -0.029   0.224  -0.001
  0.003   0.010   0.026   0.009  -1.473  -0.011   0.091  -0.026   0.006   2.107   0.017  -0.004   0.059  -0.000  -0.011  -0.002
  0.011  -0.066   0.963  -0.090  -0.015  -0.007   0.047  -0.748   0.060   0.017   2.372  -0.499  -0.002   0.188  -0.017  -0.001
 -0.005   0.009  -0.177   0.017   0.004   0.002  -0.003   0.082  -0.004  -0.004  -0.499   0.124   0.001  -0.067   0.004   0.000
  0.005  -0.229  -0.009   0.004  -0.067  -0.008   0.227   0.005   0.000   0.059  -0.002   0.001   0.234   0.004   0.000  -0.014
  0.003   0.021  -0.280   0.032   0.004   0.001  -0.017   0.340  -0.029  -0.000   0.188  -0.067   0.004   0.131   0.003  -0.000
 -0.048  -0.001  -0.007  -0.218   0.005   0.045   0.003   0.008   0.224  -0.011  -0.017   0.004   0.000   0.003   0.238  -0.000
  0.000   0.010   0.001  -0.001   0.005   0.002  -0.017   0.000  -0.001  -0.002  -0.001   0.000  -0.014  -0.000  -0.000   0.001
 -0.000   0.000  -0.000  -0.000  -0.001  -0.001   0.000  -0.015   0.001  -0.001  -0.022   0.007  -0.000  -0.008  -0.000   0.000
  0.005  -0.001   0.001   0.007   0.001  -0.003  -0.000  -0.004  -0.017   0.003   0.006  -0.001  -0.000  -0.000  -0.016   0.000


------------------------ aborting loop because EDIFF is reached ----------------------------------------





 total charge

# of ion       s       p       d       tot
------------------------------------------
    1        0.628   0.388   8.038   9.054
    2        0.629   0.384   8.044   9.057
    3        0.629   0.388   8.038   9.054
    4        0.629   0.389   8.037   9.054
    5        0.602   0.494   8.032   9.128
    6        0.595   0.483   8.028   9.106
    7        0.607   0.509   8.022   9.138
    8        0.597   0.487   8.029   9.112
    9        0.600   0.454   8.014   9.069
   10        0.592   0.434   8.023   9.050
   11        0.602   0.458   8.011   9.071
   12        0.599   0.446   8.016   9.061
   13        0.607   0.426   8.012   9.045
   14        0.604   0.410   8.020   9.034
   15        0.603   0.408   8.021   9.032
   16        0.608   0.360   8.033   9.000
   17        0.895   1.504   0.000   2.399
   18        1.598   3.506   0.000   5.104
--------------------------------------------------
tot         12.222  11.929 128.418 152.569
 
    CHARGE:  cpu time    0.1685: real time    0.1687
    FORLOC:  cpu time    0.0158: real time    0.0158
    FORNL :  cpu time    0.5967: real time    0.6031
    FORCOR:  cpu time    0.1363: real time    0.1365
    FORHAR:  cpu time    0.0481: real time    0.0482
    MIXING:  cpu time    0.0034: real time    0.0034
    OFIELD:  cpu time    0.0000: real time    0.0000

 VOLUME and BASIS-vectors are now :
 -----------------------------------------------------------------------------
  energy-cutoff  :      420.00
  volume of cell :     1013.36
      direct lattice vectors                 reciprocal lattice vectors
     5.633072000  0.000000000  0.215543000     0.177523028 -0.102293022  0.000000000
     2.812412000  4.880762000  0.215543000     0.000000000  0.204886040  0.000000000
     0.000000000  0.000000000 36.857938000    -0.001038144 -0.000599958  0.027131198

  length of vectors
     5.637194244  5.637194137 36.857938000     0.204886036  0.204886040  0.027157680


 FORCES acting on ions
    electron-ion (+dipol)            ewald-force                    non-local-force                 convergence-correction
 -----------------------------------------------------------------------------------------------
   -.118E+03 -.672E+02 0.307E+04   0.118E+03 0.673E+02 -.307E+04   -.923E-01 -.999E-01 -.165E+01   0.338E-02 -.397E-03 0.309E-01
   -.117E+03 -.678E+02 0.307E+04   0.117E+03 0.679E+02 -.307E+04   -.351E-01 -.943E-01 -.148E+01   -.575E-03 -.355E-02 0.319E-01
   -.116E+03 -.672E+02 0.307E+04   0.117E+03 0.673E+02 -.307E+04   -.178E-01 -.122E+00 -.167E+01   -.546E-02 0.272E-03 0.303E-01
   -.117E+03 -.686E+02 0.307E+04   0.117E+03 0.689E+02 -.307E+04   -.422E-01 -.186E+00 -.156E+01   -.163E-02 0.174E-02 0.262E-01
   -.428E+02 -.573E+01 0.115E+04   0.429E+02 0.592E+01 -.115E+04   -.111E+00 -.163E+00 -.277E-01   -.198E-02 -.402E-02 0.420E-01
   -.611E+02 -.321E+02 0.115E+04   0.612E+02 0.324E+02 -.114E+04   -.444E-02 -.638E-01 0.292E+00   0.634E-02 -.233E-02 0.375E-01
   -.438E+02 -.245E+02 0.116E+04   0.438E+02 0.249E+02 -.116E+04   -.146E+00 -.195E+00 -.185E+00   -.134E-02 0.465E-02 0.390E-01
   -.256E+02 -.315E+02 0.115E+04   0.255E+02 0.319E+02 -.115E+04   -.172E+00 -.813E-01 0.118E+00   -.954E-02 -.260E-02 0.369E-01
   0.265E+02 0.271E+02 -.696E+03   -.266E+02 -.270E+02 0.695E+03   0.637E-01 -.111E+00 0.761E+00   0.292E-02 -.985E-02 0.541E-01
   0.317E+02 0.377E+01 -.893E+03   -.318E+02 -.398E+01 0.893E+03   -.354E-01 0.432E+00 -.850E+00   -.548E-02 0.243E-02 0.574E-01
   0.258E+02 0.257E+02 -.694E+03   -.259E+02 -.255E+02 0.694E+03   0.352E-01 -.152E+00 0.675E+00   -.853E-02 -.661E-02 0.538E-01
   0.285E+02 0.809E+01 -.697E+03   -.286E+02 -.801E+01 0.696E+03   -.205E-01 -.761E-01 0.111E+01   -.403E-02 0.139E-02 0.583E-01
   0.161E+03 0.977E+02 -.262E+04   -.162E+03 -.982E+02 0.263E+04   0.757E+00 0.426E+00 -.285E+00   0.229E-02 -.240E-02 -.368E-02
   0.980E+02 -.196E+02 -.261E+04   -.980E+02 0.199E+02 0.262E+04   0.254E-01 -.135E+00 -.438E+00   -.333E-03 0.429E-04 -.355E-02
   0.437E+02 0.921E+02 -.262E+04   -.430E+02 -.926E+02 0.262E+04   -.589E+00 0.562E+00 0.190E+00   0.427E-02 0.583E-03 0.573E-02
   0.963E+02 0.526E+02 -.254E+04   -.965E+02 -.528E+02 0.254E+04   0.217E+00 0.262E+00 0.758E+00   0.823E-03 -.775E-02 0.155E-02
   0.511E+02 0.496E+02 -.123E+04   -.514E+02 -.509E+02 0.121E+04   0.432E+00 0.149E+01 0.115E+02   -.183E-02 -.576E-03 -.266E-01
   0.789E+02 0.318E+02 -.223E+04   -.792E+02 -.274E+02 0.229E+04   0.129E+00 -.459E+01 -.563E+02   0.824E-02 -.254E-01 -.112E-01
 -----------------------------------------------------------------------------------------------
   -.451E+00 0.420E+01 0.487E+02   -.426E-13 0.121E-12 -.409E-11   0.394E+00 -.290E+01 -.490E+02   -.125E-01 -.544E-01 0.461E+00
 
 
 POSITION                                       TOTAL-FORCE (eV/Angst)
 -----------------------------------------------------------------------------------
      0.48351      0.68636     15.00722         0.090489     -0.070148     -0.767193
      1.88972      3.12674     15.11499         0.103691     -0.032144     -1.016460
      3.30005      0.68636     15.11499         0.130358     -0.054778     -0.780548
      4.70625      3.12674     15.22276         0.100674     -0.043461     -0.672606
      1.80312      1.44898     17.37819        -0.070521     -0.049073      0.463324
      3.20933      3.88936     17.48597         0.105765      0.199996      0.779576
      4.61966      1.44898     17.48597        -0.082803      0.108566      0.597048
      6.02586      3.88936     17.59374        -0.231479      0.200065      0.666469
      3.06887      1.97785     19.78084        -0.015362     -0.102087      0.111808
      4.46760      4.34272     20.20621        -0.143786      0.160823     -0.152850
      5.89446      1.98016     19.88953        -0.069765     -0.051724      0.118064
      7.30216      4.43211     19.99371        -0.060566     -0.066743      0.050394
      2.94755      0.06292     22.41001         0.057945     -0.083702      0.069063
      4.33037      2.43981     22.50054         0.004552      0.114046      0.044116
      0.09419      0.05021     22.27088         0.085112     -0.001771      0.229297
      1.51608      2.49344     22.18571         0.032826     -0.061968      0.093682
      4.22400      0.83350     24.14027         0.168701      0.100829      0.205361
      4.21838      0.92616     25.32660        -0.205833     -0.266725     -0.038545
 -----------------------------------------------------------------------------------
    total drift:                               -0.069227      1.246785      0.117604


--------------------------------------------------------------------------------------------------------



  FREE ENERGIE OF THE ION-ELECTRON SYSTEM (eV)
  ---------------------------------------------------
  free  energy   TOTEN  =      -100.45515172 eV

  energy  without entropy=     -100.40840264  energy(sigma->0) =     -100.43177718
 
 d Force = 0.8094509E-04[ 0.520E-05, 0.157E-03]  d Energy = 0.2588314E-04 0.551E-04
 d Force = 0.4534140E+00[ 0.453E+00, 0.453E+00]  d Ewald  = 0.4534140E+00 0.938E-09


--------------------------------------------------------------------------------------------------------


    POTLOK:  cpu time    0.1356: real time    0.1357


--------------------------------------------------------------------------------------------------------




--------------------------------------------------------------------------------------------------------


  
 reached required accuracy - stopping structural energy minimisation
     LOOP+:  cpu time   19.9949: real time   20.2881
    4ORBIT:  cpu time    0.0000: real time    0.0000



 total charge

# of ion       s       p       d       tot
------------------------------------------
    1        0.628   0.388   8.038   9.054
    2        0.629   0.384   8.044   9.057
    3        0.629   0.388   8.038   9.054
    4        0.629   0.389   8.037   9.054
    5        0.602   0.494   8.032   9.128
    6        0.595   0.483   8.028   9.106
    7        0.607   0.509   8.022   9.138
    8        0.597   0.487   8.029   9.112
    9        0.600   0.454   8.014   9.069
   10        0.592   0.434   8.023   9.050
   11        0.602   0.458   8.011   9.071
   12        0.599   0.446   8.016   9.061
   13        0.607   0.426   8.012   9.045
   14        0.604   0.410   8.020   9.034
   15        0.603   0.408   8.021   9.032
   16        0.608   0.360   8.033   9.000
   17        0.895   1.504   0.000   2.399
   18        1.598   3.506   0.000   5.104
--------------------------------------------------
tot         12.222  11.929 128.418 152.569
 

 total amount of memory used by VASP MPI-rank0    51204. kBytes
=======================================================================

   base      :      30000. kBytes
   nonlr-proj:       1713. kBytes
   fftplans  :       3961. kBytes
   grid      :       7034. kBytes
   one-center:         77. kBytes
   wavefun   :       8419. kBytes
 
  
  
 General timing and accounting informations for this job:
 ========================================================
  
                  Total CPU time used (sec):     1735.379
                            User time (sec):     1733.125
                          System time (sec):        2.254
                         Elapsed time (sec):     1751.268
  
                   Maximum memory used (kb):       98184.
                   Average memory used (kb):          N/A
  
                          Minor page faults:       166661
                          Major page faults:        82662
                 Voluntary context switches:         6174
