 running on   16 total cores
 distrk:  each k-point on   16 cores,    1 groups
 distr:  one band on    4 cores,    4 groups
 vasp.6.2.0 18Jan21 (build Feb  1 2022 01:28:57) complex                         
 POSCAR found type information on POSCAR PtC O 
 POSCAR found :  3 types and      18 ions
 scaLAPACK will be used
 -----------------------------------------------------------------------------
|                                                                             |
|           W    W    AA    RRRRR   N    N  II  N    N   GGGG   !!!           |
|           W    W   A  A   R    R  NN   N  II  NN   N  G    G  !!!           |
|           W    W  A    A  R    R  N N  N  II  N N  N  G       !!!           |
|           W WW W  AAAAAA  RRRRR   N  N N  II  N  N N  G  GGG   !            |
|           WW  WW  A    A  R   R   N   NN  II  N   NN  G    G                |
|           W    W  A    A  R    R  N    N  II  N    N   GGGG   !!!           |
|                                                                             |
|     The real-space projection scheme for the treatment of the non-local     |
|     pseudopotentials has been switched on but on file POTCAR I have not     |
|     found any entries, signalling me that you have never performed a        |
|     real-space optimization of all non-local projectors! BE WARNED that     |
|     a calculation using the real-space projection scheme together with      |
|     non-local projectors which were not real-space optimized (according     |
|     to the plane-wave cutoff used in this calculation) might give more      |
|     or less inaccurate results. I hope you know what you are doing.         |
|                                                                             |
 -----------------------------------------------------------------------------

 -----------------------------------------------------------------------------
|                                                                             |
|               ----> ADVICE to this user running VASP <----                  |
|                                                                             |
|     You enforced a specific xc type in the INCAR file but a different       |
|     type was found in the POTCAR file.                                      |
|     I HOPE YOU KNOW WHAT YOU ARE DOING!                                     |
|                                                                             |
 -----------------------------------------------------------------------------

 LDA part: xc-table for Pade appr. of Perdew
 POSCAR, INCAR and KPOINTS ok, starting setup
 FFT: planning ...
 WAVECAR not read
 entering main loop
       N       E                     dE             d eps       ncg     rms          rms(c)
DAV:   1     0.114020386391E+04    0.11402E+04   -0.61866E+04   848   0.112E+03
DAV:   2     0.431518355984E+01   -0.11359E+04   -0.10506E+04  1072   0.248E+02
DAV:   3    -0.102246478222E+03   -0.10656E+03   -0.98866E+02  1008   0.752E+01
DAV:   4    -0.106288406999E+03   -0.40419E+01   -0.38397E+01  1112   0.141E+01
DAV:   5    -0.106396592015E+03   -0.10819E+00   -0.10686E+00  1072   0.244E+00    0.365E+01
DAV:   6    -0.112624810730E+03   -0.62282E+01   -0.26939E+01   936   0.278E+01    0.455E+01
DAV:   7    -0.107883953523E+03    0.47409E+01   -0.22509E+01  1064   0.230E+01    0.377E+01
DAV:   8    -0.172639457251E+03   -0.64756E+02   -0.12506E+02  1264   0.773E+01    0.675E+01
DAV:   9    -0.154555892877E+03    0.18084E+02   -0.37359E+01  1016   0.128E+01    0.607E+01
DAV:  10    -0.152902288776E+03    0.16536E+01   -0.34877E+01   960   0.251E+01    0.530E+01
DAV:  11    -0.106241280415E+03    0.46661E+02   -0.58653E+01  1096   0.267E+01    0.200E+01
DAV:  12    -0.102786028727E+03    0.34553E+01   -0.30406E+01   888   0.240E+01    0.229E+01
DAV:  13    -0.101692030075E+03    0.10940E+01   -0.10223E+01   968   0.124E+01    0.146E+01
DAV:  14    -0.101930544872E+03   -0.23851E+00   -0.81056E+00   960   0.123E+01    0.155E+01
DAV:  15    -0.101200684424E+03    0.72986E+00   -0.53416E+00   920   0.545E+00    0.976E+00
DAV:  16    -0.101285363588E+03   -0.84679E-01   -0.15554E+00   920   0.334E+00    0.103E+01
DAV:  17    -0.101032949933E+03    0.25241E+00   -0.11949E-01   928   0.208E+00    0.971E+00
DAV:  18    -0.100513583319E+03    0.51937E+00   -0.34170E+00  1096   0.710E+00    0.101E+01
DAV:  19    -0.999789101529E+02    0.53467E+00   -0.60904E-01   904   0.394E+00    0.694E+00
DAV:  20    -0.998912370791E+02    0.87673E-01   -0.12451E-01   928   0.148E+00    0.609E+00
DAV:  21    -0.998416391599E+02    0.49598E-01   -0.64859E-02   936   0.981E-01    0.566E+00
DAV:  22    -0.997955565679E+02    0.46083E-01   -0.10202E-01   928   0.876E-01    0.491E+00
DAV:  23    -0.997782657531E+02    0.17291E-01   -0.61584E-02   984   0.918E-01    0.485E+00
DAV:  24    -0.997267786133E+02    0.51487E-01   -0.26790E-01   920   0.171E+00    0.393E+00
DAV:  25    -0.997120877226E+02    0.14691E-01   -0.16610E-02   960   0.497E-01    0.332E+00
DAV:  26    -0.996964670840E+02    0.15621E-01   -0.47319E-03   920   0.299E-01    0.286E+00
DAV:  27    -0.996889216525E+02    0.75454E-02   -0.10924E-02   888   0.636E-01    0.277E+00
DAV:  28    -0.996848905620E+02    0.40311E-02   -0.49216E-03   920   0.371E-01    0.269E+00
DAV:  29    -0.996757676470E+02    0.91229E-02   -0.33585E-03   928   0.263E-01    0.238E+00
DAV:  30    -0.996659549111E+02    0.98127E-02   -0.41592E-03   880   0.306E-01    0.208E+00
DAV:  31    -0.996545191014E+02    0.11436E-01   -0.27753E-03   952   0.211E-01    0.169E+00
DAV:  32    -0.996494026876E+02    0.51164E-02   -0.41226E-04   656   0.129E-01    0.154E+00
DAV:  33    -0.996486051572E+02    0.79753E-03   -0.13373E-04   512   0.604E-02    0.156E+00
DAV:  34    -0.996336146021E+02    0.14991E-01   -0.50816E-03   864   0.370E-01    0.116E+00
DAV:  35    -0.996254581907E+02    0.81564E-02   -0.31439E-03   984   0.274E-01    0.785E-01
DAV:  36    -0.996236015983E+02    0.18566E-02   -0.53456E-04   920   0.101E-01    0.727E-01
DAV:  37    -0.996198420172E+02    0.37596E-02   -0.17506E-03   920   0.185E-01    0.451E-01
DAV:  38    -0.996185566972E+02    0.12853E-02   -0.73898E-04   968   0.101E-01    0.315E-01
DAV:  39    -0.996176203609E+02    0.93634E-03   -0.19111E-03   864   0.192E-01    0.174E-01
DAV:  40    -0.996177354713E+02   -0.11511E-03   -0.54012E-04   832   0.811E-02    0.237E-01
DAV:  41    -0.996175812784E+02    0.15419E-03   -0.90387E-05   480   0.549E-02    0.164E-01
DAV:  42    -0.996175023323E+02    0.78946E-04   -0.14453E-04   528   0.512E-02
   1 F= -.99617502E+02 E0= -.99595633E+02  d E =-.996175E+02
 curvature:   0.00 expect dE= 0.000E+00 dE for cont linesearch  0.000E+00
 trial: gam= 0.00000 g(F)=  0.138E+01 g(S)=  0.000E+00 ort = 0.000E+00 (trialstep = 0.100E+01)
 search vector abs. value=  0.138E+01
 bond charge predicted
       N       E                     dE             d eps       ncg     rms          rms(c)
DAV:   1    -0.994816274057E+02    0.13595E+00   -0.24085E+02   832   0.379E+01    0.358E+00
DAV:   2    -0.100108149461E+03   -0.62652E+00   -0.64508E+00   872   0.674E+00    0.589E+00
DAV:   3    -0.100638825793E+03   -0.53068E+00   -0.32064E+00  1032   0.762E+00    0.946E+00
DAV:   4    -0.100303851189E+03    0.33497E+00   -0.27584E+00  1104   0.824E+00    0.924E+00
DAV:   5    -0.999905790405E+02    0.31327E+00   -0.99347E-01  1008   0.254E+00    0.322E+00
DAV:   6    -0.100006389103E+03   -0.15810E-01   -0.13128E-01   960   0.254E+00    0.364E+00
DAV:   7    -0.100004963477E+03    0.14256E-02   -0.20795E-01  1000   0.335E+00    0.336E+00
DAV:   8    -0.999730963476E+02    0.31867E-01   -0.21580E-01   920   0.240E+00    0.226E+00
DAV:   9    -0.100009569903E+03   -0.36474E-01   -0.15303E-01   904   0.199E+00    0.364E+00
DAV:  10    -0.999530170346E+02    0.56553E-01   -0.13499E-01   920   0.126E+00    0.939E-01
DAV:  11    -0.999533662047E+02   -0.34917E-03   -0.16138E-02   936   0.502E-01    0.141E+00
DAV:  12    -0.999501166938E+02    0.32495E-02   -0.41622E-03   904   0.238E-01    0.109E+00
DAV:  13    -0.999477461438E+02    0.23705E-02   -0.27896E-03   912   0.213E-01    0.904E-01
DAV:  14    -0.999480209639E+02   -0.27482E-03   -0.12097E-03   944   0.141E-01    0.984E-01
DAV:  15    -0.999436293143E+02    0.43916E-02   -0.36486E-03   808   0.264E-01    0.556E-01
DAV:  16    -0.999433067152E+02    0.32260E-03   -0.31570E-04   720   0.794E-02    0.557E-01
DAV:  17    -0.999428618300E+02    0.44489E-03   -0.87134E-05   472   0.455E-02    0.503E-01
DAV:  18    -0.999422975883E+02    0.56424E-03   -0.13581E-04   520   0.619E-02    0.433E-01
DAV:  19    -0.999414537596E+02    0.84383E-03   -0.29169E-04   512   0.915E-02    0.312E-01
DAV:  20    -0.999409745908E+02    0.47917E-03   -0.20190E-04   568   0.771E-02    0.236E-01
DAV:  21    -0.999409937684E+02   -0.19178E-04   -0.29239E-05   424   0.185E-02
   2 F= -.99940994E+02 E0= -.99918476E+02  d E =-.323491E+00
 trial-energy change:   -0.323491  1 .order   -0.232434   -1.383342    0.918473
 step:   0.6546(harm=  0.6010)  dis= 0.10360  next Energy=  -100.095844 (dE=-0.478E+00)
 bond charge predicted
       N       E                     dE             d eps       ncg     rms          rms(c)
DAV:   1    -0.999326295155E+02    0.83451E-02   -0.29538E+01   832   0.151E+01    0.185E+00
DAV:   2    -0.100042034689E+03   -0.10941E+00   -0.74734E-01   888   0.307E+00    0.343E+00
DAV:   3    -0.100125141150E+03   -0.83106E-01   -0.59126E-01  1032   0.404E+00    0.539E+00
DAV:   4    -0.100008949365E+03    0.11619E+00   -0.80300E-02   952   0.139E+00    0.235E+00
DAV:   5    -0.100000275398E+03    0.86740E-02   -0.15559E-01   984   0.211E+00    0.188E+00
DAV:   6    -0.100023381851E+03   -0.23106E-01   -0.12268E-01   928   0.193E+00    0.278E+00
DAV:   7    -0.999978683186E+02    0.25514E-01   -0.13546E-01   904   0.161E+00    0.167E+00
DAV:   8    -0.999812686213E+02    0.16600E-01   -0.54671E-02   928   0.129E+00    0.692E-01
DAV:   9    -0.999809649022E+02    0.30372E-03   -0.68755E-03   880   0.284E-01    0.741E-01
DAV:  10    -0.999798964779E+02    0.10684E-02   -0.95700E-04   856   0.126E-01    0.584E-01
DAV:  11    -0.999776982072E+02    0.21983E-02   -0.46262E-03   992   0.505E-01    0.274E-01
DAV:  12    -0.999775796343E+02    0.11857E-03   -0.17176E-03   840   0.273E-01    0.270E-01
DAV:  13    -0.999781351624E+02   -0.55553E-03   -0.47239E-04   720   0.121E-01    0.419E-01
DAV:  14    -0.999775548858E+02    0.58028E-03   -0.21679E-04   512   0.968E-02    0.273E-01
DAV:  15    -0.999773078524E+02    0.24703E-03   -0.11969E-04   496   0.571E-02    0.149E-01
DAV:  16    -0.999771694642E+02    0.13839E-03   -0.13837E-04   520   0.855E-02    0.277E-02
DAV:  17    -0.999771897869E+02   -0.20323E-04   -0.36717E-05   472   0.217E-02
   3 F= -.99977190E+02 E0= -.99954901E+02  d E =-.359687E+00
 curvature:  -0.30 expect dE=-0.333E+00 dE for cont linesearch -0.425E-01
 ZBRENT: interpolating
 opt :   0.7676  next Energy=  -100.002391 (dE=-0.385E+00)
 bond charge predicted
       N       E                     dE             d eps       ncg     rms          rms(c)
DAV:   1    -0.100037134938E+03   -0.59965E-01   -0.31755E+00   832   0.468E+00    0.547E-01
DAV:   2    -0.100042236363E+03   -0.51014E-02   -0.63897E-02   864   0.701E-01    0.528E-01
DAV:   3    -0.100062516013E+03   -0.20280E-01   -0.33642E-02  1024   0.109E+00    0.196E+00
DAV:   4    -0.100048124734E+03    0.14391E-01   -0.56407E-02  1136   0.128E+00    0.101E+00
DAV:   5    -0.100041316842E+03    0.68079E-02   -0.12838E-02   960   0.539E-01    0.334E-01
DAV:   6    -0.100062002402E+03   -0.20686E-01   -0.24937E-02  1176   0.118E+00    0.165E+00
DAV:   7    -0.100042553511E+03    0.19449E-01   -0.37458E-02  1168   0.124E+00    0.429E-01
DAV:   8    -0.100042582568E+03   -0.29057E-04   -0.20209E-03   928   0.211E-01    0.425E-01
DAV:   9    -0.100041242629E+03    0.13399E-02   -0.16417E-03   808   0.268E-01    0.567E-02
DAV:  10    -0.100041284766E+03   -0.42137E-04   -0.13081E-04   520   0.503E-02
   4 F= -.10004128E+03 E0= -.10001900E+03  d E =-.423782E+00
 curvature:  -0.18 expect dE=-0.271E+00 dE for cont linesearch -0.379E-01
 ZBRENT: bisectioning
 opt :   0.8838  next Energy=  -100.110931 (dE=-0.493E+00)
 bond charge predicted
       N       E                     dE             d eps       ncg     rms          rms(c)
DAV:   1    -0.100020820818E+03    0.20422E-01   -0.33705E+00   832   0.490E+00    0.485E-01
DAV:   2    -0.100028247044E+03   -0.74262E-02   -0.73032E-02   880   0.827E-01    0.652E-01
DAV:   3    -0.100041501854E+03   -0.13255E-01   -0.44604E-02  1000   0.111E+00    0.187E+00
DAV:   4    -0.100030222164E+03    0.11280E-01   -0.38549E-02  1024   0.104E+00    0.842E-01
DAV:   5    -0.100025873323E+03    0.43488E-02   -0.61502E-03   984   0.434E-01    0.359E-01
DAV:   6    -0.100030906595E+03   -0.50333E-02   -0.92504E-03  1064   0.654E-01    0.887E-01
DAV:   7    -0.100028388439E+03    0.25182E-02   -0.17230E-02  1128   0.906E-01    0.663E-01
DAV:   8    -0.100025755705E+03    0.26327E-02   -0.31718E-03   944   0.333E-01    0.832E-02
DAV:   9    -0.100025753506E+03    0.21988E-05   -0.42616E-04   576   0.126E-01
   5 F= -.10002575E+03 E0= -.10000313E+03  d E =-.408251E+00
 curvature:  -0.32 expect dE=-0.357E+00 dE for cont linesearch -0.133E+00
 ZBRENT: interpolating
 opt :   0.8163  next Energy=  -100.054625 (dE=-0.437E+00)
 bond charge predicted
       N       E                     dE             d eps       ncg     rms          rms(c)
DAV:   1    -0.100055874512E+03   -0.30119E-01   -0.11336E+00   832   0.290E+00    0.325E-01
DAV:   2    -0.100080690686E+03   -0.24816E-01   -0.48159E-02   888   0.121E+00    0.210E+00
DAV:   3    -0.100058331753E+03    0.22359E-01   -0.41980E-02   952   0.108E+00    0.388E-01
DAV:   4    -0.100058111053E+03    0.22070E-03   -0.19986E-03  1000   0.224E-01    0.388E-01
DAV:   5    -0.100058680771E+03   -0.56972E-03   -0.47714E-03  1000   0.504E-01    0.459E-01
DAV:   6    -0.100060863164E+03   -0.21824E-02   -0.56931E-03   888   0.421E-01    0.639E-01
DAV:   7    -0.100057448270E+03    0.34149E-02   -0.52092E-03   936   0.462E-01    0.133E-01
DAV:   8    -0.100057454233E+03   -0.59628E-05   -0.90715E-04   792   0.167E-01
   6 F= -.10005745E+03 E0= -.10003485E+03  d E =-.439952E+00
 curvature:  -0.03 expect dE=-0.497E-01 dE for cont linesearch -0.517E-04
 trial: gam= 1.15066 g(F)=  0.154E+01 g(S)=  0.000E+00 ort =-0.471E-01 (trialstep = 0.408E+00)
 search vector abs. value=  0.327E+01
 bond charge predicted
       N       E                     dE             d eps       ncg     rms          rms(c)
DAV:   1    -0.995453107700E+02    0.51214E+00   -0.13856E+02   832   0.312E+01    0.215E+00
DAV:   2    -0.998942953180E+02   -0.34898E+00   -0.35407E+00   856   0.442E+00    0.242E+00
DAV:   3    -0.100341005007E+03   -0.44671E+00   -0.10697E+00  1168   0.562E+00    0.759E+00
DAV:   4    -0.998891989053E+02    0.45181E+00   -0.12541E+00  1216   0.535E+00    0.194E+00
DAV:   5    -0.999165077484E+02   -0.27309E-01   -0.18249E-01   944   0.273E+00    0.314E+00
DAV:   6    -0.998846737658E+02    0.31834E-01   -0.91693E-02   968   0.206E+00    0.261E+00
DAV:   7    -0.998460437697E+02    0.38630E-01   -0.99971E-02   896   0.120E+00    0.113E+00
DAV:   8    -0.998526070838E+02   -0.65633E-02   -0.88213E-02  1000   0.184E+00    0.192E+00
DAV:   9    -0.998391972767E+02    0.13410E-01   -0.33895E-02   904   0.673E-01    0.473E-01
DAV:  10    -0.998446881911E+02   -0.54909E-02   -0.37449E-02  1128   0.119E+00    0.139E+00
DAV:  11    -0.998391242348E+02    0.55640E-02   -0.48926E-03   904   0.264E-01    0.874E-01
DAV:  12    -0.998331301511E+02    0.59941E-02   -0.90222E-03  1008   0.654E-01    0.225E-01
DAV:  13    -0.998332413484E+02   -0.11120E-03   -0.22176E-03   896   0.168E-01    0.179E-01
DAV:  14    -0.998330563567E+02    0.18499E-03   -0.23719E-04   560   0.780E-02    0.959E-02
DAV:  15    -0.998329757090E+02    0.80648E-04   -0.21538E-04   512   0.830E-02
   7 F= -.99832976E+02 E0= -.99810931E+02  d E =0.224479E+00
 trial-energy change:    0.224479  1 .order   -0.232228   -0.607757    0.143302
 step:   0.3300(harm=  0.3300)  dis= 0.06098  next Energy=  -100.303353 (dE=-0.246E+00)
 bond charge predicted
       N       E                     dE             d eps       ncg     rms          rms(c)
DAV:   1    -0.998530065134E+02   -0.19950E-01   -0.50607E+00   832   0.556E+00    0.512E-01
DAV:   2    -0.998968696930E+02   -0.43863E-01   -0.16601E-01   880   0.162E+00    0.287E+00
DAV:   3    -0.998620326242E+02    0.34837E-01   -0.70237E-02   984   0.141E+00    0.563E-01
DAV:   4    -0.998606390572E+02    0.13936E-02   -0.52232E-03   920   0.334E-01    0.406E-01
DAV:   5    -0.998615374451E+02   -0.89839E-03   -0.96405E-03   904   0.550E-01    0.545E-01
DAV:   6    -0.998601981994E+02    0.13392E-02   -0.60216E-03   928   0.448E-01    0.342E-01
DAV:   7    -0.998612731030E+02   -0.10749E-02   -0.57495E-03   968   0.528E-01    0.492E-01
DAV:   8    -0.998603476893E+02    0.92541E-03   -0.48648E-03   928   0.513E-01    0.350E-01
DAV:   9    -0.998595950254E+02    0.75266E-03   -0.10777E-03   624   0.239E-01    0.858E-02
DAV:  10    -0.998595844704E+02    0.10555E-04   -0.21095E-04   520   0.748E-02
   8 F= -.99859584E+02 E0= -.99837649E+02  d E =0.197870E+00
 curvature:  -0.36 expect dE=-0.525E+00 dE for cont linesearch -0.872E-01
 ZBRENT: interpolating
 opt :   0.2068  next Energy=   -99.914251 (dE= 0.143E+00)
 bond charge predicted
       N       E                     dE             d eps       ncg     rms          rms(c)
DAV:   1    -0.999156440659E+02   -0.56049E-01   -0.12541E+01   832   0.886E+00    0.738E-01
DAV:   2    -0.999357808596E+02   -0.20137E-01   -0.24126E-01   880   0.121E+00    0.561E-01
DAV:   3    -0.999880999686E+02   -0.52319E-01   -0.10605E-01  1160   0.164E+00    0.341E+00
DAV:   4    -0.999353338284E+02    0.52766E-01   -0.66020E-02  1144   0.129E+00    0.525E-01
DAV:   5    -0.999457765645E+02   -0.10443E-01   -0.27595E-02  1016   0.110E+00    0.123E+00
DAV:   6    -0.999344217379E+02    0.11355E-01   -0.23309E-02   944   0.895E-01    0.413E-01
DAV:   7    -0.999353676799E+02   -0.94594E-03   -0.82311E-03  1008   0.605E-01    0.587E-01
DAV:   8    -0.999332160162E+02    0.21517E-02   -0.30296E-03   928   0.373E-01    0.130E-01
DAV:   9    -0.999344940824E+02   -0.12781E-02   -0.16403E-03   728   0.262E-01    0.476E-01
DAV:  10    -0.999335217454E+02    0.97234E-03   -0.50818E-04   536   0.125E-01    0.238E-01
DAV:  11    -0.999333021996E+02    0.21955E-03   -0.13024E-03   640   0.266E-01    0.180E-01
DAV:  12    -0.999331783768E+02    0.12382E-03   -0.28911E-04   616   0.734E-02    0.536E-02
DAV:  13    -0.999331489553E+02    0.29421E-04   -0.52564E-05   480   0.528E-02
   9 F= -.99933149E+02 E0= -.99910995E+02  d E =0.124305E+00
 curvature:  -0.23 expect dE=-0.172E+00 dE for cont linesearch -0.411E-01
 ZBRENT: bisectioning
 opt :   0.1034  next Energy=  -100.007626 (dE= 0.498E-01)
 bond charge predicted
       N       E                     dE             d eps       ncg     rms          rms(c)
DAV:   1    -0.100002966541E+03   -0.69788E-01   -0.87700E+00   832   0.772E+00    0.580E-01
DAV:   2    -0.100020645138E+03   -0.17679E-01   -0.18612E-01   880   0.112E+00    0.770E-01
DAV:   3    -0.100051113436E+03   -0.30468E-01   -0.93095E-02  1112   0.149E+00    0.274E+00
DAV:   4    -0.100019598528E+03    0.31515E-01   -0.30632E-02  1096   0.845E-01    0.617E-01
DAV:   5    -0.100026731506E+03   -0.71330E-02   -0.22398E-02  1096   0.110E+00    0.121E+00
DAV:   6    -0.100024452292E+03    0.22792E-02   -0.16362E-02   888   0.684E-01    0.885E-01
DAV:   7    -0.100019987069E+03    0.44652E-02   -0.21937E-02  1064   0.100E+00    0.695E-01
DAV:   8    -0.100017917847E+03    0.20692E-02   -0.22851E-03   864   0.234E-01    0.356E-01
DAV:   9    -0.100017358366E+03    0.55948E-03   -0.30186E-04   600   0.104E-01    0.212E-01
DAV:  10    -0.100017167568E+03    0.19080E-03   -0.28578E-04   592   0.774E-02    0.101E-01
DAV:  11    -0.100017159323E+03    0.82453E-05   -0.23861E-04   520   0.103E-01
  10 F= -.10001716E+03 E0= -.99994786E+02  d E =0.402949E-01
 curvature:  -0.41 expect dE=-0.177E+00 dE for cont linesearch -0.391E-01
 ZBRENT: bisectioning
 opt :   0.0517  next Energy=  -100.043264 (dE= 0.142E-01)
 bond charge predicted
       N       E                     dE             d eps       ncg     rms          rms(c)
DAV:   1    -0.100046680412E+03   -0.29513E-01   -0.21859E+00   832   0.385E+00    0.318E-01
DAV:   2    -0.100057949730E+03   -0.11269E-01   -0.51243E-02   888   0.873E-01    0.124E+00
DAV:   3    -0.100052060857E+03    0.58889E-02   -0.23095E-02   976   0.861E-01    0.694E-01
DAV:   4    -0.100051922619E+03    0.13824E-03   -0.16765E-03   928   0.183E-01    0.553E-01
DAV:   5    -0.100050441806E+03    0.14808E-02   -0.55493E-03   968   0.486E-01    0.291E-01
DAV:   6    -0.100053974514E+03   -0.35327E-02   -0.40604E-03   944   0.427E-01    0.713E-01
DAV:   7    -0.100050587595E+03    0.33869E-02   -0.76185E-03  1040   0.635E-01    0.280E-01
DAV:   8    -0.100050216202E+03    0.37139E-03   -0.52961E-04   704   0.114E-01    0.102E-01
DAV:   9    -0.100050204742E+03    0.11460E-04   -0.91572E-05   504   0.378E-02
  11 F= -.10005020E+03 E0= -.10002801E+03  d E =0.724949E-02
 curvature:  -0.27 expect dE=-0.223E+00 dE for cont linesearch -0.494E-01
 ZBRENT: bisectioning
 opt :   0.0259  next Energy=  -100.071407 (dE=-0.140E-01)
 bond charge predicted
       N       E                     dE             d eps       ncg     rms          rms(c)
DAV:   1    -0.100069861474E+03   -0.19645E-01   -0.55174E-01   832   0.194E+00    0.170E-01
DAV:   2    -0.100075982613E+03   -0.61211E-02   -0.16473E-02   880   0.615E-01    0.102E+00
DAV:   3    -0.100070963924E+03    0.50187E-02   -0.90043E-03   952   0.559E-01    0.256E-01
DAV:   4    -0.100071305940E+03   -0.34202E-03   -0.97593E-04   904   0.175E-01    0.311E-01
DAV:   5    -0.100070830043E+03    0.47590E-03   -0.14036E-03   896   0.241E-01    0.150E-01
DAV:   6    -0.100070982512E+03   -0.15247E-03   -0.84096E-04   664   0.170E-01    0.192E-01
DAV:   7    -0.100070855790E+03    0.12672E-03   -0.76291E-04   640   0.198E-01    0.123E-01
DAV:   8    -0.100070812668E+03    0.43122E-04   -0.26783E-04   536   0.118E-01
  12 F= -.10007081E+03 E0= -.10004829E+03  d E =-.133584E-01
 curvature:  -0.12 expect dE=-0.883E-01 dE for cont linesearch -0.828E-02
 ZBRENT: bisectioning
 opt :   0.0129  next Energy=  -100.076085 (dE=-0.186E-01)
 bond charge predicted
       N       E                     dE             d eps       ncg     rms          rms(c)
DAV:   1    -0.100070967618E+03   -0.11183E-03   -0.13722E-01   832   0.982E-01    0.125E-01
DAV:   2    -0.100091159426E+03   -0.20192E-01   -0.24729E-02  1160   0.100E+00    0.192E+00
DAV:   3    -0.100071718899E+03    0.19441E-01   -0.30452E-02  1176   0.928E-01    0.141E-01
DAV:   4    -0.100071757394E+03   -0.38495E-04   -0.11137E-03   944   0.210E-01    0.300E-01
DAV:   5    -0.100071141918E+03    0.61548E-03   -0.78820E-04   664   0.188E-01    0.496E-02
DAV:   6    -0.100071230426E+03   -0.88508E-04   -0.24253E-04   584   0.985E-02
  13 F= -.10007123E+03 E0= -.10004872E+03  d E =-.137762E-01
 curvature:  -0.07 expect dE=-0.633E-01 dE for cont linesearch -0.556E-02
 ZBRENT: interpolating
 opt :   0.0195  next Energy=  -100.072343 (dE=-0.149E-01)
 bond charge predicted
       N       E                     dE             d eps       ncg     rms          rms(c)
DAV:   1    -0.100072443033E+03   -0.13011E-02   -0.35668E-02   832   0.505E-01    0.706E-02
DAV:   2    -0.100083566728E+03   -0.11124E-01   -0.17184E-02  1160   0.733E-01    0.153E+00
DAV:   3    -0.100072719602E+03    0.10847E-01   -0.14752E-02  1096   0.611E-01    0.697E-02
DAV:   4    -0.100072553740E+03    0.16586E-03   -0.52759E-04   808   0.154E-01    0.111E-01
DAV:   5    -0.100072508732E+03    0.45008E-04   -0.11479E-04   488   0.586E-02
  14 F= -.10007251E+03 E0= -.10005008E+03  d E =-.150545E-01
 curvature:  -0.02 expect dE=-0.147E-01 dE for cont linesearch -0.231E-04
 trial: gam= 0.02108 g(F)=  0.713E+00 g(S)=  0.000E+00 ort =-0.605E-01 (trialstep = 0.330E+00)
 search vector abs. value=  0.712E+00
 bond charge predicted
       N       E                     dE             d eps       ncg     rms          rms(c)
DAV:   1    -0.100017023772E+03    0.55530E-01   -0.12458E+01   832   0.930E+00    0.898E-01
DAV:   2    -0.100046020607E+03   -0.28997E-01   -0.29620E-01   880   0.161E+00    0.144E+00
DAV:   3    -0.100063521734E+03   -0.17501E-01   -0.82128E-02  1040   0.162E+00    0.248E+00
DAV:   4    -0.100038508895E+03    0.25013E-01   -0.69149E-02  1048   0.126E+00    0.101E+00
DAV:   5    -0.100038423751E+03    0.85144E-04   -0.17874E-02   912   0.762E-01    0.982E-01
DAV:   6    -0.100031367790E+03    0.70560E-02   -0.24062E-02   864   0.610E-01    0.477E-01
DAV:   7    -0.100030792226E+03    0.57556E-03   -0.10434E-02   944   0.390E-01    0.371E-01
DAV:   8    -0.100030337996E+03    0.45423E-03   -0.27012E-03   904   0.221E-01    0.189E-01
DAV:   9    -0.100030165255E+03    0.17274E-03   -0.65643E-04   632   0.108E-01    0.128E-01
DAV:  10    -0.100031529294E+03   -0.13640E-02   -0.23918E-03   896   0.327E-01    0.499E-01
DAV:  11    -0.100030168121E+03    0.13612E-02   -0.25764E-03   792   0.382E-01    0.142E-01
DAV:  12    -0.100029990375E+03    0.17775E-03   -0.37912E-04   608   0.122E-01    0.631E-02
DAV:  13    -0.100029977120E+03    0.13256E-04   -0.76767E-05   472   0.351E-02
  15 F= -.10002998E+03 E0= -.10000819E+03  d E =0.425316E-01
 trial-energy change:    0.042532  1 .order   -0.021829   -0.234887    0.191229
 step:   0.1143(harm=  0.1820)  dis= 0.01305  next Energy=  -100.110490 (dE=-0.380E-01)
 bond charge predicted
       N       E                     dE             d eps       ncg     rms          rms(c)
DAV:   1    -0.100083251274E+03   -0.53261E-01   -0.52963E+00   832   0.588E+00    0.687E-01
DAV:   2    -0.100095914676E+03   -0.12663E-01   -0.12600E-01   888   0.105E+00    0.107E+00
DAV:   3    -0.100113206185E+03   -0.17292E-01   -0.78318E-02  1072   0.138E+00    0.232E+00
DAV:   4    -0.100094548211E+03    0.18658E-01   -0.48328E-02  1040   0.944E-01    0.816E-01
DAV:   5    -0.100090014491E+03    0.45337E-02   -0.12479E-02   912   0.613E-01    0.537E-01
DAV:   6    -0.100103456062E+03   -0.13442E-01   -0.27317E-02  1016   0.109E+00    0.141E+00
DAV:   7    -0.100094978417E+03    0.84776E-02   -0.51112E-02  1104   0.148E+00    0.998E-01
DAV:   8    -0.100088603929E+03    0.63745E-02   -0.67317E-03  1008   0.533E-01    0.124E-01
DAV:   9    -0.100088729198E+03   -0.12527E-03   -0.69511E-04   712   0.118E-01    0.247E-01
DAV:  10    -0.100088703442E+03    0.25756E-04   -0.31892E-04   568   0.621E-02
  16 F= -.10008870E+03 E0= -.10006677E+03  d E =-.161947E-01
 curvature:  -0.07 expect dE=-0.748E-01 dE for cont linesearch -0.230E-02
 ZBRENT: interpolating
 opt :   0.0943  next Energy=  -100.090212 (dE=-0.177E-01)
 bond charge predicted
       N       E                     dE             d eps       ncg     rms          rms(c)
DAV:   1    -0.100091696233E+03   -0.29670E-02   -0.46560E-02   832   0.564E-01    0.203E-01
DAV:   2    -0.100171977059E+03   -0.80281E-01   -0.10161E-01  1256   0.197E+00    0.367E+00
DAV:   3    -0.100094529119E+03    0.77448E-01   -0.19305E-01  1264   0.189E+00    0.288E-01
DAV:   4    -0.100092037348E+03    0.24918E-02   -0.22352E-03   928   0.219E-01    0.233E-01
DAV:   5    -0.100091614246E+03    0.42310E-03   -0.52093E-04   712   0.149E-01    0.773E-02
DAV:   6    -0.100091660298E+03   -0.46052E-04   -0.29502E-04   560   0.109E-01
  17 F= -.10009166E+03 E0= -.10006929E+03  d E =-.191516E-01
 curvature:  -0.05 expect dE=-0.611E-01 dE for cont linesearch -0.207E-02
 ZBRENT: bisectioning
 opt :   0.0471  next Energy=  -100.101450 (dE=-0.289E-01)
 bond charge predicted
       N       E                     dE             d eps       ncg     rms          rms(c)
DAV:   1    -0.100093728800E+03   -0.21146E-02   -0.25494E-01   832   0.131E+00    0.150E-01
DAV:   2    -0.100097540881E+03   -0.38121E-02   -0.92383E-03   888   0.478E-01    0.847E-01
DAV:   3    -0.100094561529E+03    0.29794E-02   -0.73398E-03   984   0.507E-01    0.345E-01
DAV:   4    -0.100094168329E+03    0.39320E-03   -0.83062E-04   800   0.147E-01    0.203E-01
DAV:   5    -0.100094001683E+03    0.16665E-03   -0.26639E-04   600   0.872E-02    0.146E-01
DAV:   6    -0.100094139062E+03   -0.13738E-03   -0.97803E-04   680   0.169E-01    0.191E-01
DAV:   7    -0.100093943255E+03    0.19581E-03   -0.70784E-04   616   0.154E-01    0.845E-02
DAV:   8    -0.100093930296E+03    0.12959E-04   -0.93993E-05   488   0.448E-02
  18 F= -.10009393E+03 E0= -.10007169E+03  d E =-.214216E-01
 curvature:  -0.22 expect dE=-0.134E+00 dE for cont linesearch -0.728E-02
 ZBRENT: interpolating
 opt :   0.0690  next Energy=  -100.095596 (dE=-0.231E-01)
 bond charge predicted
       N       E                     dE             d eps       ncg     rms          rms(c)
DAV:   1    -0.100094770520E+03   -0.82727E-03   -0.54797E-02   832   0.611E-01    0.658E-02
DAV:   2    -0.100096852583E+03   -0.20821E-02   -0.32928E-03   904   0.338E-01    0.651E-01
DAV:   3    -0.100094872806E+03    0.19798E-02   -0.26900E-03   832   0.315E-01    0.966E-02
DAV:   4    -0.100094836460E+03    0.36346E-04   -0.20794E-04   552   0.719E-02
  19 F= -.10009484E+03 E0= -.10007253E+03  d E =-.223277E-01
 curvature:  -0.05 expect dE=-0.542E-01 dE for cont linesearch -0.297E-03
 trial: gam= 1.58490 g(F)=  0.107E+01 g(S)=  0.000E+00 ort =-0.644E-01 (trialstep = 0.746E-01)
 search vector abs. value=  0.265E+01
 bond charge predicted
       N       E                     dE             d eps       ncg     rms          rms(c)
DAV:   1    -0.100146184555E+03   -0.51312E-01   -0.17352E+00   832   0.338E+00    0.354E-01
DAV:   2    -0.100148664917E+03   -0.24804E-02   -0.28972E-02   888   0.585E-01    0.515E-01
DAV:   3    -0.100151164473E+03   -0.24996E-02   -0.10202E-02  1040   0.587E-01    0.938E-01
DAV:   4    -0.100148466422E+03    0.26981E-02   -0.88431E-03  1040   0.557E-01    0.546E-01
DAV:   5    -0.100147499216E+03    0.96721E-03   -0.21859E-03   888   0.268E-01    0.336E-01
DAV:   6    -0.100147171763E+03    0.32745E-03   -0.27455E-03   880   0.182E-01    0.187E-01
DAV:   7    -0.100147078144E+03    0.93619E-04   -0.10524E-03   800   0.149E-01    0.105E-01
DAV:   8    -0.100147049093E+03    0.29051E-04   -0.34946E-04   528   0.906E-02
  20 F= -.10014705E+03 E0= -.10012496E+03  d E =-.522126E-01
 trial-energy change:   -0.052213  1 .order   -0.046591   -0.071948   -0.021234
 step:   0.0918(harm=  0.1059)  dis= 0.02562  next Energy=  -100.149563 (dE=-0.547E-01)
 bond charge predicted
       N       E                     dE             d eps       ncg     rms          rms(c)
DAV:   1    -0.100152933876E+03   -0.58557E-02   -0.91781E-02   832   0.779E-01    0.102E-01
DAV:   2    -0.100153200489E+03   -0.26661E-03   -0.20078E-03   888   0.171E-01    0.178E-01
DAV:   3    -0.100153423270E+03   -0.22278E-03   -0.10467E-03   608   0.198E-01    0.302E-01
DAV:   4    -0.100153149489E+03    0.27378E-03   -0.92259E-04   568   0.185E-01    0.180E-01
DAV:   5    -0.100153077368E+03    0.72121E-04   -0.12704E-04   512   0.722E-02
  21 F= -.10015308E+03 E0= -.10013105E+03  d E =-.582409E-01
 curvature:  -0.12 expect dE=-0.990E-01 dE for cont linesearch -0.566E-02
 ZBRENT: increasing intervall
 opt :   0.1262  next Energy=  -100.168010 (dE=-0.732E-01)
 bond charge predicted
       N       E                     dE             d eps       ncg     rms          rms(c)
DAV:   1    -0.100165031969E+03   -0.11882E-01   -0.36840E-01   832   0.156E+00    0.263E-01
DAV:   2    -0.100175588075E+03   -0.10556E-01   -0.21953E-02   936   0.790E-01    0.145E+00
DAV:   3    -0.100167964114E+03    0.76240E-02   -0.25606E-02  1056   0.929E-01    0.709E-01
DAV:   4    -0.100165537877E+03    0.24262E-02   -0.50473E-03   944   0.386E-01    0.262E-01
DAV:   5    -0.100165319262E+03    0.21862E-03   -0.10981E-03   800   0.163E-01    0.239E-01
DAV:   6    -0.100165253175E+03    0.66087E-04   -0.12082E-03   688   0.146E-01    0.161E-01
DAV:   7    -0.100165208686E+03    0.44489E-04   -0.70793E-04   752   0.118E-01
  22 F= -.10016521E+03 E0= -.10014339E+03  d E =-.703722E-01
 curvature:  -0.31 expect dE=-0.311E+00 dE for cont linesearch -0.836E-03
 trial: gam= 0.42540 g(F)=  0.102E+01 g(S)=  0.000E+00 ort = 0.850E-01 (trialstep = 0.850E-01)
 search vector abs. value=  0.157E+01
 bond charge predicted
       N       E                     dE             d eps       ncg     rms          rms(c)
DAV:   1    -0.100168620398E+03   -0.33672E-02   -0.22496E+00   832   0.386E+00    0.408E-01
DAV:   2    -0.100272012471E+03   -0.10339E+00   -0.24642E-01  1008   0.233E+00    0.445E+00
DAV:   3    -0.100174727332E+03    0.97285E-01   -0.15586E-01  1056   0.207E+00    0.371E-01
DAV:   4    -0.100175549068E+03   -0.82174E-03   -0.65521E-03   984   0.449E-01    0.723E-01
DAV:   5    -0.100173114074E+03    0.24350E-02   -0.42495E-03   944   0.381E-01    0.294E-01
DAV:   6    -0.100176803191E+03   -0.36891E-02   -0.83132E-03  1008   0.589E-01    0.752E-01
DAV:   7    -0.100173668305E+03    0.31349E-02   -0.38184E-03   920   0.350E-01    0.352E-01
DAV:   8    -0.100173554975E+03    0.11333E-03   -0.37511E-03   896   0.459E-01    0.399E-01
DAV:   9    -0.100172760720E+03    0.79426E-03   -0.15780E-03   752   0.257E-01    0.951E-02
DAV:  10    -0.100172769716E+03   -0.89963E-05   -0.14382E-04   528   0.493E-02
  23 F= -.10017277E+03 E0= -.10015113E+03  d E =-.756103E-02
 trial-energy change:   -0.007561  1 .order   -0.020477   -0.089312    0.048359
 step:   0.0432(harm=  0.0551)  dis= 0.00757  next Energy=  -100.186202 (dE=-0.210E-01)
 bond charge predicted
       N       E                     dE             d eps       ncg     rms          rms(c)
DAV:   1    -0.100187694055E+03   -0.14933E-01   -0.54514E-01   832   0.189E+00    0.145E-01
DAV:   2    -0.100191095277E+03   -0.34012E-02   -0.13530E-02   872   0.468E-01    0.709E-01
DAV:   3    -0.100188987959E+03    0.21073E-02   -0.51402E-03   984   0.432E-01    0.283E-01
DAV:   4    -0.100188793389E+03    0.19457E-03   -0.47370E-04   624   0.958E-02    0.170E-01
DAV:   5    -0.100188697071E+03    0.96319E-04   -0.40561E-04   584   0.135E-01
  24 F= -.10018870E+03 E0= -.10016693E+03  d E =-.234884E-01
 curvature:  -0.03 expect dE=-0.133E-01 dE for cont linesearch -0.767E-04
 trial: gam= 0.36638 g(F)=  0.386E+00 g(S)=  0.000E+00 ort =-0.590E-01 (trialstep = 0.766E-01)
 search vector abs. value=  0.553E+00
 bond charge predicted
       N       E                     dE             d eps       ncg     rms          rms(c)
DAV:   1    -0.100200617736E+03   -0.11824E-01   -0.56594E-01   832   0.197E+00    0.303E-01
DAV:   2    -0.100353247215E+03   -0.15263E+00   -0.29803E-01  1168   0.274E+00    0.537E+00
DAV:   3    -0.100205285216E+03    0.14796E+00   -0.22501E-01  1192   0.231E+00    0.331E-01
DAV:   4    -0.100201247125E+03    0.40381E-02   -0.70328E-03   928   0.442E-01    0.242E-01
DAV:   5    -0.100201798420E+03   -0.55130E-03   -0.13799E-03   920   0.202E-01    0.363E-01
DAV:   6    -0.100201124780E+03    0.67364E-03   -0.93930E-04   600   0.189E-01    0.129E-01
DAV:   7    -0.100202408037E+03   -0.12833E-02   -0.20289E-03   752   0.305E-01    0.469E-01
DAV:   8    -0.100201563484E+03    0.84455E-03   -0.46770E-04   536   0.109E-01    0.275E-01
DAV:   9    -0.100201172113E+03    0.39137E-03   -0.12299E-03   632   0.263E-01    0.152E-01
DAV:  10    -0.100201068380E+03    0.10373E-03   -0.30091E-04   520   0.106E-01    0.289E-02
DAV:  11    -0.100201069493E+03   -0.11135E-05   -0.32793E-05   488   0.218E-02
  25 F= -.10020107E+03 E0= -.10017933E+03  d E =-.123724E-01
 trial-energy change:   -0.012372  1 .order   -0.011472   -0.027922    0.004977
 step:   0.0665(harm=  0.0650)  dis= 0.00503  next Energy=  -100.201397 (dE=-0.127E-01)
 bond charge predicted
       N       E                     dE             d eps       ncg     rms          rms(c)
DAV:   1    -0.100201502994E+03   -0.43461E-03   -0.98960E-03   832   0.260E-01    0.243E-02
DAV:   2    -0.100201712257E+03   -0.20926E-03   -0.38753E-04   608   0.102E-01    0.210E-01
DAV:   3    -0.100201544025E+03    0.16823E-03   -0.40664E-04   496   0.126E-01    0.809E-02
DAV:   4    -0.100201518982E+03    0.25043E-04   -0.53464E-05   472   0.496E-02
  26 F= -.10020152E+03 E0= -.10017972E+03  d E =-.128219E-01
 curvature:  -0.05 expect dE=-0.132E-01 dE for cont linesearch -0.711E-06
 trial: gam= 0.51553 g(F)=  0.272E+00 g(S)=  0.000E+00 ort =-0.285E-02 (trialstep = 0.746E-01)
 search vector abs. value=  0.416E+00
 bond charge predicted
       N       E                     dE             d eps       ncg     rms          rms(c)
DAV:   1    -0.100209789509E+03   -0.82455E-02   -0.37911E-01   832   0.167E+00    0.124E-01
DAV:   2    -0.100210432012E+03   -0.64250E-03   -0.67138E-03   856   0.263E-01    0.178E-01
DAV:   3    -0.100211441886E+03   -0.10099E-02   -0.24162E-03   904   0.291E-01    0.509E-01
DAV:   4    -0.100210602176E+03    0.83971E-03   -0.24985E-03   760   0.304E-01    0.241E-01
DAV:   5    -0.100210282382E+03    0.31979E-03   -0.30328E-04   536   0.946E-02    0.994E-02
DAV:   6    -0.100210311200E+03   -0.28819E-04   -0.33649E-04   608   0.938E-02
  27 F= -.10021031E+03 E0= -.10018868E+03  d E =-.879222E-02
 trial-energy change:   -0.008792  1 .order   -0.009988   -0.020200    0.000224
 step:   0.0733(harm=  0.0738)  dis= 0.00331  next Energy=  -100.210313 (dE=-0.879E-02)
 bond charge predicted
       N       E                     dE             d eps       ncg     rms          rms(c)
DAV:   1    -0.100210307567E+03   -0.25185E-04   -0.35171E-04   592   0.717E-02    0.672E-02
DAV:   2    -0.100211827399E+03   -0.15198E-02   -0.27992E-03   776   0.292E-01    0.500E-01
DAV:   3    -0.100211166489E+03    0.66091E-03   -0.40319E-03   840   0.381E-01    0.415E-01
DAV:   4    -0.100210283185E+03    0.88330E-03   -0.10572E-03   672   0.197E-01    0.356E-02
DAV:   5    -0.100210306724E+03   -0.23539E-04   -0.10409E-04   512   0.601E-02
  28 F= -.10021031E+03 E0= -.10018846E+03  d E =-.878774E-02
 curvature:  -0.04 expect dE=-0.543E-02 dE for cont linesearch -0.623E-08
 trial: gam= 0.61508 g(F)=  0.133E+00 g(S)=  0.000E+00 ort = 0.252E-03 (trialstep = 0.743E-01)
 search vector abs. value=  0.291E+00
 bond charge predicted
       N       E                     dE             d eps       ncg     rms          rms(c)
DAV:   1    -0.100217484595E+03   -0.72014E-02   -0.29200E-01   832   0.145E+00    0.168E-01
DAV:   2    -0.100218064507E+03   -0.57991E-03   -0.56271E-03   888   0.260E-01    0.212E-01
DAV:   3    -0.100219651017E+03   -0.15865E-02   -0.35645E-03   944   0.348E-01    0.614E-01
DAV:   4    -0.100218407880E+03    0.12431E-02   -0.39947E-03   872   0.381E-01    0.300E-01
DAV:   5    -0.100217857200E+03    0.55068E-03   -0.62160E-04   688   0.133E-01    0.113E-01
DAV:   6    -0.100220312326E+03   -0.24551E-02   -0.34052E-03   872   0.438E-01    0.595E-01
DAV:   7    -0.100217884690E+03    0.24276E-02   -0.36020E-03   856   0.429E-01    0.124E-01
DAV:   8    -0.100217805881E+03    0.78809E-04   -0.19726E-04   576   0.597E-02
  29 F= -.10021781E+03 E0= -.10019610E+03  d E =-.749916E-02
 trial-energy change:   -0.007499  1 .order   -0.007849   -0.009877   -0.005822
 step:   0.1810(harm=  0.1810)  dis= 0.00882  next Energy=  -100.222336 (dE=-0.120E-01)
 bond charge predicted
       N       E                     dE             d eps       ncg     rms          rms(c)
DAV:   1    -0.100219875870E+03   -0.19912E-02   -0.60254E-01   832   0.208E+00    0.267E-01
DAV:   2    -0.100220941553E+03   -0.10657E-02   -0.11592E-02   888   0.362E-01    0.260E-01
DAV:   3    -0.100223406977E+03   -0.24654E-02   -0.63529E-03   944   0.475E-01    0.736E-01
DAV:   4    -0.100222647887E+03    0.75909E-03   -0.71449E-03   992   0.523E-01    0.597E-01
DAV:   5    -0.100220762819E+03    0.18851E-02   -0.34072E-03   856   0.343E-01    0.203E-01
DAV:   6    -0.100221985309E+03   -0.12225E-02   -0.34788E-03   904   0.366E-01    0.460E-01
DAV:   7    -0.100220712346E+03    0.12730E-02   -0.28126E-03   808   0.344E-01    0.156E-01
DAV:   8    -0.100220747733E+03   -0.35386E-04   -0.27326E-04   568   0.794E-02
  30 F= -.10022075E+03 E0= -.10019920E+03  d E =-.104410E-01
 curvature:  -0.20 expect dE=-0.145E+00 dE for cont linesearch -0.906E-03
 trial: gam= 0.00000 g(F)=  0.731E+00 g(S)=  0.000E+00 ort =-0.365E-01 (trialstep = 0.380E-01)
 search vector abs. value=  0.731E+00
 bond charge predicted
       N       E                     dE             d eps       ncg     rms          rms(c)
DAV:   1    -0.100235493699E+03   -0.14781E-01   -0.26407E-01   832   0.128E+00    0.234E-01
DAV:   2    -0.100236992183E+03   -0.14985E-02   -0.80616E-03   888   0.339E-01    0.477E-01
DAV:   3    -0.100237420092E+03   -0.42791E-03   -0.56908E-03  1000   0.474E-01    0.594E-01
DAV:   4    -0.100237469943E+03   -0.49850E-04   -0.22841E-03   920   0.276E-01    0.431E-01
DAV:   5    -0.100235767822E+03    0.17021E-02   -0.28051E-03   936   0.322E-01    0.134E-01
DAV:   6    -0.100238689252E+03   -0.29214E-02   -0.47843E-03   976   0.490E-01    0.657E-01
DAV:   7    -0.100235672113E+03    0.30171E-02   -0.40168E-03   952   0.445E-01    0.875E-02
DAV:   8    -0.100235742613E+03   -0.70500E-04   -0.19778E-04   632   0.738E-02
  31 F= -.10023574E+03 E0= -.10021383E+03  d E =-.149949E-01
 trial-energy change:   -0.014995  1 .order   -0.012811   -0.027800    0.002178
 step:   0.0361(harm=  0.0353)  dis= 0.00351  next Energy=  -100.235798 (dE=-0.151E-01)
 bond charge predicted
       N       E                     dE             d eps       ncg     rms          rms(c)
DAV:   1    -0.100235788896E+03   -0.11678E-03   -0.74017E-04   688   0.727E-02    0.124E-01
DAV:   2    -0.100270223272E+03   -0.34434E-01   -0.66984E-02  1224   0.128E+00    0.268E+00
DAV:   3    -0.100236464645E+03    0.33759E-01   -0.57866E-02  1224   0.112E+00    0.103E-01
DAV:   4    -0.100235707871E+03    0.75677E-03   -0.10406E-03   872   0.189E-01    0.946E-02
DAV:   5    -0.100235885429E+03   -0.17756E-03   -0.26859E-04   560   0.852E-02    0.172E-01
DAV:   6    -0.100235687752E+03    0.19768E-03   -0.16477E-04   504   0.906E-02    0.336E-02
DAV:   7    -0.100235686379E+03    0.13724E-05   -0.20702E-05   488   0.198E-02
  32 F= -.10023569E+03 E0= -.10021393E+03  d E =-.149386E-01
 curvature:  -0.02 expect dE=-0.210E-02 dE for cont linesearch -0.797E-06
 trial: gam= 0.18661 g(F)=  0.130E+00 g(S)=  0.000E+00 ort =-0.601E-02 (trialstep = 0.377E-01)
 search vector abs. value=  0.154E+00
 bond charge predicted
       N       E                     dE             d eps       ncg     rms          rms(c)
DAV:   1    -0.100239736035E+03   -0.40483E-02   -0.30770E-02   832   0.463E-01    0.756E-02
DAV:   2    -0.100239849515E+03   -0.11348E-03   -0.58841E-04   784   0.103E-01    0.132E-01
DAV:   3    -0.100239833595E+03    0.15921E-04   -0.30852E-04   512   0.111E-01    0.138E-01
DAV:   4    -0.100239848353E+03   -0.14758E-04   -0.11368E-04   504   0.519E-02
  33 F= -.10023985E+03 E0= -.10021824E+03  d E =-.416197E-02
 trial-energy change:   -0.004162  1 .order   -0.003994   -0.004866   -0.003123
 step:   0.1051(harm=  0.1051)  dis= 0.00491  next Energy=  -100.242478 (dE=-0.679E-02)
 bond charge predicted
       N       E                     dE             d eps       ncg     rms          rms(c)
DAV:   1    -0.100242446379E+03   -0.26128E-02   -0.99450E-02   832   0.839E-01    0.210E-01
DAV:   2    -0.100245393329E+03   -0.29470E-02   -0.59940E-03   944   0.408E-01    0.767E-01
DAV:   3    -0.100243455355E+03    0.19380E-02   -0.76256E-03  1032   0.501E-01    0.474E-01
DAV:   4    -0.100242781314E+03    0.67404E-03   -0.22193E-03   848   0.255E-01    0.219E-01
DAV:   5    -0.100242693720E+03    0.87594E-04   -0.98944E-04   712   0.197E-01
  34 F= -.10024269E+03 E0= -.10022118E+03  d E =-.700734E-02
 curvature:  -0.06 expect dE=-0.705E-02 dE for cont linesearch -0.576E-04
 trial: gam= 0.82986 g(F)=  0.113E+00 g(S)=  0.000E+00 ort = 0.119E-01 (trialstep = 0.330E-01)
 search vector abs. value=  0.238E+00
 bond charge predicted
       N       E                     dE             d eps       ncg     rms          rms(c)
DAV:   1    -0.100245453420E+03   -0.26721E-02   -0.47961E-02   832   0.626E-01    0.183E-01
DAV:   2    -0.100286451110E+03   -0.40998E-01   -0.79149E-02  1240   0.144E+00    0.285E+00
DAV:   3    -0.100246665608E+03    0.39786E-01   -0.58362E-02  1288   0.117E+00    0.253E-01
DAV:   4    -0.100245495414E+03    0.11702E-02   -0.23806E-03   984   0.323E-01    0.202E-01
DAV:   5    -0.100245639021E+03   -0.14361E-03   -0.86314E-04   864   0.142E-01    0.192E-01
DAV:   6    -0.100245487802E+03    0.15122E-03   -0.93183E-04   656   0.199E-01    0.140E-01
DAV:   7    -0.100245386294E+03    0.10151E-03   -0.29894E-04   512   0.118E-01    0.708E-02
DAV:   8    -0.100245554180E+03   -0.16789E-03   -0.34775E-04   504   0.138E-01    0.161E-01
DAV:   9    -0.100245374042E+03    0.18014E-03   -0.26606E-04   504   0.125E-01    0.523E-02
DAV:  10    -0.100245376336E+03   -0.22938E-05   -0.17659E-05   480   0.166E-02
  35 F= -.10024538E+03 E0= -.10022362E+03  d E =-.268262E-02
 trial-energy change:   -0.002683  1 .order   -0.003071   -0.004044   -0.002098
 step:   0.0685(harm=  0.0685)  dis= 0.00356  next Energy=  -100.246895 (dE=-0.420E-02)
 bond charge predicted
       N       E                     dE             d eps       ncg     rms          rms(c)
DAV:   1    -0.100246181204E+03   -0.80716E-03   -0.55021E-02   832   0.638E-01    0.988E-02
DAV:   2    -0.100246286283E+03   -0.10508E-03   -0.10676E-03   888   0.109E-01    0.103E-01
DAV:   3    -0.100247170930E+03   -0.88465E-03   -0.13079E-03   608   0.235E-01    0.437E-01
DAV:   4    -0.100246323554E+03    0.84738E-03   -0.91684E-04   584   0.177E-01    0.945E-02
DAV:   5    -0.100246292750E+03    0.30804E-04   -0.37724E-04   568   0.125E-01
  36 F= -.10024629E+03 E0= -.10022464E+03  d E =-.359903E-02
 curvature:  -0.07 expect dE=-0.592E-02 dE for cont linesearch -0.384E-05
 trial: gam= 0.84915 g(F)=  0.890E-01 g(S)=  0.000E+00 ort =-0.371E-02 (trialstep = 0.375E-01)
 search vector abs. value=  0.255E+00
 bond charge predicted
       N       E                     dE             d eps       ncg     rms          rms(c)
DAV:   1    -0.100248663067E+03   -0.23395E-02   -0.84961E-02   832   0.780E-01    0.226E-01
DAV:   2    -0.100356551680E+03   -0.10789E+00   -0.13711E-01  1224   0.233E+00    0.408E+00
DAV:   3    -0.100252173788E+03    0.10438E+00   -0.24458E-01  1280   0.211E+00    0.221E-01
DAV:   4    -0.100248578590E+03    0.35952E-02   -0.36797E-03   920   0.250E-01    0.119E-01
DAV:   5    -0.100248559685E+03    0.18906E-04   -0.83820E-04   736   0.165E-01
  37 F= -.10024856E+03 E0= -.10022677E+03  d E =-.226693E-02
 trial-energy change:   -0.002267  1 .order   -0.002396   -0.003220   -0.001572
 step:   0.0733(harm=  0.0733)  dis= 0.00525  next Energy=  -100.249438 (dE=-0.315E-02)
 bond charge predicted
       N       E                     dE             d eps       ncg     rms          rms(c)
DAV:   1    -0.100249131030E+03   -0.55244E-03   -0.76497E-02   832   0.733E-01    0.169E-01
DAV:   2    -0.100298791408E+03   -0.49660E-01   -0.97283E-02  1248   0.157E+00    0.316E+00
DAV:   3    -0.100250449709E+03    0.48342E-01   -0.56518E-02  1272   0.128E+00    0.209E-01
DAV:   4    -0.100249294516E+03    0.11552E-02   -0.23327E-03   960   0.356E-01    0.252E-01
DAV:   5    -0.100249631286E+03   -0.33677E-03   -0.92634E-04   904   0.136E-01    0.293E-01
DAV:   6    -0.100249019195E+03    0.61209E-03   -0.79321E-04   640   0.189E-01    0.597E-02
DAV:   7    -0.100249051731E+03   -0.32536E-04   -0.21515E-04   512   0.706E-02
  38 F= -.10024905E+03 E0= -.10022745E+03  d E =-.275898E-02
 curvature:  -0.11 expect dE=-0.168E-01 dE for cont linesearch -0.510E-05
 trial: gam= 1.38585 g(F)=  0.155E+00 g(S)=  0.000E+00 ort =-0.346E-02 (trialstep = 0.179E-01)
 search vector abs. value=  0.634E+00
 bond charge predicted
       N       E                     dE             d eps       ncg     rms          rms(c)
DAV:   1    -0.100251462798E+03   -0.24436E-02   -0.52896E-02   832   0.588E-01    0.104E-01
DAV:   2    -0.100274256695E+03   -0.22794E-01   -0.26972E-02  1240   0.107E+00    0.201E+00
DAV:   3    -0.100252163649E+03    0.22093E-01   -0.30341E-02  1216   0.929E-01    0.767E-02
DAV:   4    -0.100251487381E+03    0.67627E-03   -0.76577E-04   864   0.176E-01    0.980E-02
DAV:   5    -0.100251458502E+03    0.28879E-04   -0.22731E-04   528   0.940E-02
  39 F= -.10025146E+03 E0= -.10022975E+03  d E =-.240677E-02
 ZBRENT: can't locate minimum, use default step
 trial-energy change:   -0.002407  1 .order   -0.002540   -0.002686   -0.002395
 step:   0.0717(harm=  0.1655)  dis= 0.00924  next Energy=  -100.261443 (dE=-0.124E-01)
 bond charge predicted
       N       E                     dE             d eps       ncg     rms          rms(c)
DAV:   1    -0.100255825668E+03   -0.43383E-02   -0.47612E-01   832   0.175E+00    0.101E-01
DAV:   2    -0.100256904643E+03   -0.10790E-02   -0.66494E-03   888   0.310E-01    0.354E-01
DAV:   3    -0.100256391420E+03    0.51322E-03   -0.11745E-03   736   0.193E-01    0.132E-01
DAV:   4    -0.100256352633E+03    0.38788E-04   -0.19840E-04   520   0.800E-02
  40 F= -.10025635E+03 E0= -.10023463E+03  d E =-.730090E-02
 curvature:  -0.21 expect dE=-0.281E-01 dE for cont linesearch -0.264E-02
 ZBRENT: increasing intervall
 opt :   0.1794  next Energy=  -100.261239 (dE=-0.122E-01)
 bond charge predicted
       N       E                     dE             d eps       ncg     rms          rms(c)
DAV:   1    -0.100256110157E+03    0.28126E-03   -0.19142E+00   832   0.352E+00    0.307E-01
DAV:   2    -0.100276792830E+03   -0.20683E-01   -0.54330E-02   888   0.114E+00    0.191E+00
DAV:   3    -0.100264759888E+03    0.12033E-01   -0.68890E-02   984   0.125E+00    0.117E+00
DAV:   4    -0.100259089854E+03    0.56700E-02   -0.16821E-02   928   0.667E-01    0.413E-01
DAV:   5    -0.100258591355E+03    0.49850E-03   -0.13882E-03   896   0.177E-01    0.362E-01
DAV:   6    -0.100258607983E+03   -0.16629E-04   -0.35613E-03   920   0.391E-01    0.346E-01
DAV:   7    -0.100259302864E+03   -0.69488E-03   -0.52620E-03   992   0.548E-01    0.499E-01
DAV:   8    -0.100257834946E+03    0.14679E-02   -0.32753E-03   904   0.385E-01    0.148E-01
DAV:   9    -0.100257701551E+03    0.13339E-03   -0.27713E-04   576   0.678E-02    0.565E-02
DAV:  10    -0.100257678385E+03    0.23166E-04   -0.68737E-05   480   0.542E-02
  41 F= -.10025768E+03 E0= -.10023602E+03  d E =-.862665E-02
 curvature:  -0.39 expect dE=-0.119E+00 dE for cont linesearch -0.457E-03
 trial: gam= 2.00415 g(F)=  0.308E+00 g(S)=  0.000E+00 ort = 0.273E-01 (trialstep = 0.107E-01)
 search vector abs. value=  0.296E+01
 bond charge predicted
       N       E                     dE             d eps       ncg     rms          rms(c)
DAV:   1    -0.100260333662E+03   -0.26321E-02   -0.91220E-02   832   0.737E-01    0.645E-02
DAV:   2    -0.100261077353E+03   -0.74369E-03   -0.21482E-03   872   0.213E-01    0.358E-01
DAV:   3    -0.100260838201E+03    0.23915E-03   -0.22201E-03   752   0.279E-01    0.286E-01
DAV:   4    -0.100260515691E+03    0.32251E-03   -0.86755E-04   664   0.180E-01    0.111E-01
DAV:   5    -0.100260491462E+03    0.24228E-04   -0.89364E-05   504   0.472E-02
  42 F= -.10026049E+03 E0= -.10023890E+03  d E =-.281308E-02
 ZBRENT: can't locate minimum, use default step
 trial-energy change:   -0.002813  1 .order   -0.003837   -0.003901   -0.003772
 step:   0.0430(harm=  0.3246)  dis= 0.01243  next Energy=  -100.316627 (dE=-0.589E-01)
 bond charge predicted
       N       E                     dE             d eps       ncg     rms          rms(c)
DAV:   1    -0.100267440401E+03   -0.69247E-02   -0.82620E-01   832   0.222E+00    0.177E-01
DAV:   2    -0.100288098961E+03   -0.20659E-01   -0.40984E-02   960   0.106E+00    0.204E+00
DAV:   3    -0.100268933404E+03    0.19166E-01   -0.38049E-02   992   0.919E-01    0.218E-01
DAV:   4    -0.100269017956E+03   -0.84552E-04   -0.32391E-03   928   0.326E-01    0.348E-01
DAV:   5    -0.100268851210E+03    0.16675E-03   -0.41972E-04   768   0.886E-02    0.310E-01
DAV:   6    -0.100269083343E+03   -0.23213E-03   -0.29862E-03   776   0.384E-01    0.370E-01
DAV:   7    -0.100268187014E+03    0.89633E-03   -0.90861E-04   664   0.216E-01    0.700E-02
DAV:   8    -0.100268243590E+03   -0.56576E-04   -0.29349E-04   600   0.721E-02
  43 F= -.10026824E+03 E0= -.10024676E+03  d E =-.105652E-01
 curvature:  -0.26 expect dE=-0.729E-01 dE for cont linesearch -0.943E-02
 ZBRENT: increasing intervall
 opt :   0.1074  next Energy=  -100.288028 (dE=-0.303E-01)
 bond charge predicted
       N       E                     dE             d eps       ncg     rms          rms(c)
DAV:   1    -0.100277483849E+03   -0.92968E-02   -0.33072E+00   832   0.444E+00    0.256E-01
DAV:   2    -0.100291230497E+03   -0.13747E-01   -0.54220E-02   880   0.985E-01    0.141E+00
DAV:   3    -0.100282874982E+03    0.83555E-02   -0.27412E-02   976   0.896E-01    0.538E-01
DAV:   4    -0.100282144519E+03    0.73046E-03   -0.46623E-03   920   0.361E-01    0.389E-01
DAV:   5    -0.100281612152E+03    0.53237E-03   -0.46125E-04   704   0.975E-02    0.291E-01
DAV:   6    -0.100281210354E+03    0.40180E-03   -0.12979E-03   744   0.228E-01    0.236E-01
DAV:   7    -0.100281140514E+03    0.69840E-04   -0.17639E-03   896   0.213E-01    0.177E-01
DAV:   8    -0.100280978455E+03    0.16206E-03   -0.82071E-04   848   0.136E-01    0.695E-02
DAV:   9    -0.100280978707E+03   -0.25178E-06   -0.10204E-04   480   0.388E-02
  44 F= -.10028098E+03 E0= -.10025923E+03  d E =-.233003E-01
 curvature:  -0.54 expect dE=-0.208E+00 dE for cont linesearch -0.110E-01
 ZBRENT: increasing intervall
 opt :   0.2363  next Energy=  -100.301712 (dE=-0.440E-01)
 bond charge predicted
       N       E                     dE             d eps       ncg     rms          rms(c)
DAV:   1    -0.100279583419E+03    0.13950E-02   -0.13259E+01   832   0.889E+00    0.489E-01
DAV:   2    -0.100323978305E+03   -0.44395E-01   -0.20548E-01   896   0.182E+00    0.235E+00
DAV:   3    -0.100301956516E+03    0.22022E-01   -0.88337E-02   936   0.166E+00    0.113E+00
DAV:   4    -0.100297464754E+03    0.44918E-02   -0.15135E-02   920   0.660E-01    0.701E-01
DAV:   5    -0.100295958135E+03    0.15066E-02   -0.13526E-03   896   0.155E-01    0.552E-01
DAV:   6    -0.100293831510E+03    0.21266E-02   -0.24090E-03   912   0.324E-01    0.298E-01
DAV:   7    -0.100293854607E+03   -0.23097E-04   -0.37911E-03   888   0.239E-01    0.325E-01
DAV:   8    -0.100293534784E+03    0.31982E-03   -0.28385E-03   888   0.223E-01    0.170E-01
DAV:   9    -0.100293529493E+03    0.52903E-05   -0.44833E-04   584   0.968E-02
  45 F= -.10029353E+03 E0= -.10027153E+03  d E =-.358511E-01
 curvature:  -1.02 expect dE=-0.661E+00 dE for cont linesearch -0.415E-02
 ZBRENT: increasing intervall
 opt :   0.4940  next Energy=  -100.286908 (dE=-0.292E-01)
 bond charge predicted
       N       E                     dE             d eps       ncg     rms          rms(c)
DAV:   1    -0.100228780237E+03    0.64755E-01   -0.53336E+01   832   0.178E+01    0.963E-01
DAV:   2    -0.100380228004E+03   -0.15145E+00   -0.81185E-01   904   0.344E+00    0.392E+00
DAV:   3    -0.100326194905E+03    0.54033E-01   -0.34877E-01   976   0.321E+00    0.244E+00
DAV:   4    -0.100300406870E+03    0.25788E-01   -0.66572E-02   928   0.149E+00    0.135E+00
DAV:   5    -0.100292311621E+03    0.80952E-02   -0.59797E-03   920   0.383E-01    0.919E-01
DAV:   6    -0.100292456916E+03   -0.14529E-03   -0.66717E-03   920   0.448E-01    0.991E-01
DAV:   7    -0.100312572363E+03   -0.20115E-01   -0.45358E-02  1152   0.159E+00    0.203E+00
DAV:   8    -0.100286443285E+03    0.26129E-01   -0.12057E-01  1088   0.144E+00    0.336E-01
DAV:   9    -0.100285702891E+03    0.74039E-03   -0.77239E-03   904   0.342E-01    0.277E-01
DAV:  10    -0.100285275372E+03    0.42752E-03   -0.14969E-03   912   0.192E-01    0.190E-01
DAV:  11    -0.100285278687E+03   -0.33144E-05   -0.58913E-04   576   0.109E-01
  46 F= -.10028528E+03 E0= -.10026278E+03  d E =-.276003E-01
 curvature:   1.63 expect dE= 0.150E+01 dE for cont linesearch  0.151E-02
 trial: gam= 2.98625 g(F)=  0.922E+00 g(S)=  0.000E+00 ort =-0.524E-01 (trialstep = 0.118E-01)
 search vector abs. value=  0.270E+02
 bond charge predicted
       N       E                     dE             d eps       ncg     rms          rms(c)
DAV:   1    -0.100292411319E+03   -0.71359E-02   -0.10020E+00   832   0.244E+00    0.237E-01
DAV:   2    -0.100296916220E+03   -0.45049E-02   -0.20512E-02   896   0.645E-01    0.654E-01
DAV:   3    -0.100299941705E+03   -0.30255E-02   -0.23514E-02   968   0.840E-01    0.115E+00
DAV:   4    -0.100295870085E+03    0.40716E-02   -0.20900E-02   992   0.753E-01    0.562E-01
DAV:   5    -0.100294172106E+03    0.16980E-02   -0.25814E-03   944   0.326E-01    0.282E-01
DAV:   6    -0.100294540085E+03   -0.36798E-03   -0.17542E-03   664   0.301E-01    0.388E-01
DAV:   7    -0.100293570510E+03    0.96958E-03   -0.11038E-03   616   0.220E-01    0.911E-02
DAV:   8    -0.100293577047E+03   -0.65373E-05   -0.26973E-04   592   0.757E-02
  47 F= -.10029358E+03 E0= -.10027139E+03  d E =-.829836E-02
 ZBRENT: can't locate minimum, use default step
 trial-energy change:   -0.008298  1 .order   -0.009121   -0.009008   -0.009233
 step:   0.0471(harm=  0.0471)  dis= 0.03976  next Energy=  -100.323113 (dE=-0.378E-01)
 bond charge predicted
       N       E                     dE             d eps       ncg     rms          rms(c)
DAV:   1    -0.100311775924E+03   -0.18205E-01   -0.90450E+00   832   0.733E+00    0.415E-01
DAV:   2    -0.100342070653E+03   -0.30295E-01   -0.14741E-01   904   0.148E+00    0.195E+00
DAV:   3    -0.100329144687E+03    0.12926E-01   -0.57099E-02   992   0.148E+00    0.108E+00
DAV:   4    -0.100323629731E+03    0.55150E-02   -0.21086E-02   968   0.768E-01    0.557E-01
DAV:   5    -0.100322038251E+03    0.15915E-02   -0.13100E-03   896   0.174E-01    0.344E-01
DAV:   6    -0.100322247910E+03   -0.20966E-03   -0.26907E-03   912   0.330E-01    0.453E-01
DAV:   7    -0.100321505095E+03    0.74281E-03   -0.53615E-03   976   0.450E-01    0.256E-01
DAV:   8    -0.100321201235E+03    0.30386E-03   -0.27580E-03   920   0.288E-01    0.168E-01
DAV:   9    -0.100321081226E+03    0.12001E-03   -0.51458E-04   616   0.103E-01    0.699E-02
DAV:  10    -0.100321130600E+03   -0.49373E-04   -0.19636E-04   512   0.907E-02
  48 F= -.10032113E+03 E0= -.10029842E+03  d E =-.358519E-01
 curvature:  -1.26 expect dE=-0.106E+01 dE for cont linesearch -0.262E-01
 ZBRENT: increasing intervall
 opt :   0.1177  next Energy=  -100.371498 (dE=-0.862E-01)
 bond charge predicted
       N       E                     dE             d eps       ncg     rms          rms(c)
DAV:   1    -0.100322640011E+03   -0.15588E-02   -0.36310E+01   832   0.147E+01    0.836E-01
DAV:   2    -0.100463317181E+03   -0.14068E+00   -0.62239E-01   896   0.316E+00    0.404E+00
DAV:   3    -0.100395955121E+03    0.67362E-01   -0.32007E-01   968   0.324E+00    0.221E+00
DAV:   4    -0.100370056944E+03    0.25898E-01   -0.94026E-02   944   0.155E+00    0.992E-01
DAV:   5    -0.100363752033E+03    0.63049E-02   -0.89989E-03   920   0.546E-01    0.507E-01
DAV:   6    -0.100368458028E+03   -0.47060E-02   -0.14340E-02   928   0.738E-01    0.110E+00
DAV:   7    -0.100366389358E+03    0.20687E-02   -0.29728E-02  1000   0.103E+00    0.800E-01
DAV:   8    -0.100362779698E+03    0.36097E-02   -0.21016E-02   976   0.929E-01    0.617E-01
DAV:   9    -0.100362539263E+03    0.24043E-03   -0.39533E-03   920   0.218E-01    0.466E-01
DAV:  10    -0.100360699073E+03    0.18402E-02   -0.45824E-03   760   0.358E-01    0.144E-01
DAV:  11    -0.100360712936E+03   -0.13863E-04   -0.47357E-04   880   0.806E-02
  49 F= -.10036071E+03 E0= -.10033736E+03  d E =-.754342E-01
 curvature:  -2.43 expect dE=-0.757E+00 dE for cont linesearch -0.137E-03
 trial: gam= 0.12197 g(F)=  0.312E+00 g(S)=  0.000E+00 ort =-0.391E-01 (trialstep = 0.330E-01)
 search vector abs. value=  0.704E+00
 bond charge predicted
       N       E                     dE             d eps       ncg     rms          rms(c)
DAV:   1    -0.100367831391E+03   -0.71323E-02   -0.19875E-01   832   0.120E+00    0.178E-01
DAV:   2    -0.100375796441E+03   -0.79651E-02   -0.13411E-02   944   0.700E-01    0.119E+00
DAV:   3    -0.100370265196E+03    0.55312E-02   -0.15026E-02   984   0.777E-01    0.558E-01
DAV:   4    -0.100368771738E+03    0.14935E-02   -0.87518E-03   928   0.475E-01    0.328E-01
DAV:   5    -0.100368256610E+03    0.51513E-03   -0.11630E-03   792   0.213E-01    0.167E-01
DAV:   6    -0.100368580130E+03   -0.32352E-03   -0.98025E-04   648   0.228E-01    0.279E-01
DAV:   7    -0.100368071028E+03    0.50910E-03   -0.87108E-04   592   0.220E-01    0.810E-02
DAV:   8    -0.100368052279E+03    0.18750E-04   -0.17857E-04   520   0.825E-02
  50 F= -.10036805E+03 E0= -.10034482E+03  d E =-.733934E-02
 trial-energy change:   -0.007339  1 .order   -0.006682   -0.010116   -0.003248
 step:   0.0420(harm=  0.0485)  dis= 0.00335  next Energy=  -100.368509 (dE=-0.780E-02)
 bond charge predicted
       N       E                     dE             d eps       ncg     rms          rms(c)
DAV:   1    -0.100368746631E+03   -0.67560E-03   -0.14805E-02   832   0.327E-01    0.432E-02
DAV:   2    -0.100369545526E+03   -0.79890E-03   -0.11322E-03   808   0.210E-01    0.357E-01
DAV:   3    -0.100368807757E+03    0.73777E-03   -0.21040E-03   632   0.224E-01    0.108E-01
DAV:   4    -0.100368827217E+03   -0.19460E-04   -0.12124E-04   552   0.638E-02
  51 F= -.10036883E+03 E0= -.10034550E+03  d E =-.811428E-02
 curvature:  -0.05 expect dE=-0.927E-02 dE for cont linesearch -0.916E-04
 trial: gam= 0.51900 g(F)=  0.202E+00 g(S)=  0.000E+00 ort = 0.375E-01 (trialstep = 0.348E-01)
 search vector abs. value=  0.431E+00
 bond charge predicted
       N       E                     dE             d eps       ncg     rms          rms(c)
DAV:   1    -0.100375870581E+03   -0.70628E-02   -0.12380E-01   832   0.894E-01    0.131E-01
DAV:   2    -0.100378318245E+03   -0.24477E-02   -0.45533E-03   904   0.375E-01    0.632E-01
DAV:   3    -0.100376848219E+03    0.14700E-02   -0.10360E-02   992   0.487E-01    0.396E-01
DAV:   4    -0.100376227560E+03    0.62066E-03   -0.95135E-04   800   0.198E-01    0.189E-01
DAV:   5    -0.100376118664E+03    0.10890E-03   -0.50280E-04   592   0.165E-01    0.134E-01
DAV:   6    -0.100376630088E+03   -0.51142E-03   -0.14108E-03   624   0.287E-01    0.291E-01
DAV:   7    -0.100375990427E+03    0.63966E-03   -0.89154E-04   600   0.221E-01    0.676E-02
DAV:   8    -0.100375980024E+03    0.10404E-04   -0.10300E-04   472   0.418E-02
  52 F= -.10037598E+03 E0= -.10035281E+03  d E =-.715281E-02
 ZBRENT: can't locate minimum, use default step
 trial-energy change:   -0.007153  1 .order   -0.006903   -0.007715   -0.006092
 step:   0.1390(harm=  0.1653)  dis= 0.00935  next Energy=  -100.387164 (dE=-0.183E-01)
 bond charge predicted
       N       E                     dE             d eps       ncg     rms          rms(c)
DAV:   1    -0.100384322473E+03   -0.83320E-02   -0.11114E+00   832   0.268E+00    0.252E-01
DAV:   2    -0.100388882865E+03   -0.45604E-02   -0.21580E-02   896   0.637E-01    0.732E-01
DAV:   3    -0.100386702467E+03    0.21804E-02   -0.77712E-03   896   0.537E-01    0.431E-01
DAV:   4    -0.100387230879E+03   -0.52841E-03   -0.81601E-03   904   0.468E-01    0.495E-01
DAV:   5    -0.100385997901E+03    0.12330E-02   -0.20761E-03   904   0.305E-01    0.243E-01
DAV:   6    -0.100387970977E+03   -0.19731E-02   -0.44088E-03   904   0.495E-01    0.570E-01
DAV:   7    -0.100386026051E+03    0.19449E-02   -0.50277E-03   992   0.503E-01    0.273E-01
DAV:   8    -0.100385490567E+03    0.53548E-03   -0.98924E-04   824   0.155E-01    0.438E-02
DAV:   9    -0.100385469327E+03    0.21240E-04   -0.82716E-05   472   0.445E-02
  53 F= -.10038547E+03 E0= -.10036221E+03  d E =-.166421E-01
 curvature:  -0.15 expect dE=-0.609E-01 dE for cont linesearch -0.145E-03
 trial: gam= 1.96189 g(F)=  0.396E+00 g(S)=  0.000E+00 ort =-0.201E-01 (trialstep = 0.121E-01)
 search vector abs. value=  0.198E+01
 bond charge predicted
       N       E                     dE             d eps       ncg     rms          rms(c)
DAV:   1    -0.100389754576E+03   -0.42640E-02   -0.77056E-02   832   0.690E-01    0.648E-02
DAV:   2    -0.100390664087E+03   -0.90951E-03   -0.20862E-03   912   0.235E-01    0.371E-01
DAV:   3    -0.100390267023E+03    0.39706E-03   -0.44726E-03   792   0.322E-01    0.278E-01
DAV:   4    -0.100389981567E+03    0.28546E-03   -0.40512E-04   632   0.131E-01    0.140E-01
DAV:   5    -0.100389849033E+03    0.13253E-03   -0.10738E-04   520   0.719E-02    0.634E-02
DAV:   6    -0.100389953356E+03   -0.10432E-03   -0.11467E-04   520   0.821E-02    0.138E-01
DAV:   7    -0.100389836109E+03    0.11725E-03   -0.97703E-05   472   0.675E-02    0.333E-02
DAV:   8    -0.100389842583E+03   -0.64742E-05   -0.19412E-05   416   0.175E-02
  54 F= -.10038984E+03 E0= -.10036656E+03  d E =-.437326E-02
 ZBRENT: can't locate minimum, use default step
 trial-energy change:   -0.004373  1 .order   -0.003870   -0.004321   -0.003419
 step:   0.0485(harm=  0.0582)  dis= 0.00801  next Energy=  -100.395825 (dE=-0.104E-01)
 bond charge predicted
       N       E                     dE             d eps       ncg     rms          rms(c)
DAV:   1    -0.100397677992E+03   -0.78419E-02   -0.69730E-01   832   0.207E+00    0.138E-01
DAV:   2    -0.100398845465E+03   -0.11675E-02   -0.10382E-02   880   0.356E-01    0.182E-01
DAV:   3    -0.100400367295E+03   -0.15218E-02   -0.55012E-03   920   0.388E-01    0.531E-01
DAV:   4    -0.100398921128E+03    0.14462E-02   -0.11409E-03   696   0.226E-01    0.237E-01
DAV:   5    -0.100398580916E+03    0.34021E-03   -0.21303E-04   592   0.913E-02    0.172E-01
DAV:   6    -0.100399494059E+03   -0.91314E-03   -0.69439E-04   568   0.220E-01    0.382E-01
DAV:   7    -0.100398506182E+03    0.98788E-03   -0.14239E-03   880   0.249E-01    0.868E-02
DAV:   8    -0.100398466903E+03    0.39279E-04   -0.17010E-04   528   0.713E-02
  55 F= -.10039847E+03 E0= -.10037524E+03  d E =-.129976E-01
 curvature:  -0.15 expect dE=-0.453E-01 dE for cont linesearch -0.160E-03
 trial: gam= 0.30553 g(F)=  0.293E+00 g(S)=  0.000E+00 ort = 0.452E-01 (trialstep = 0.194E-01)
 search vector abs. value=  0.505E+00
 bond charge predicted
       N       E                     dE             d eps       ncg     rms          rms(c)
DAV:   1    -0.100404848078E+03   -0.63419E-02   -0.41445E-02   832   0.535E-01    0.687E-02
DAV:   2    -0.100406755344E+03   -0.19073E-02   -0.25311E-03   928   0.319E-01    0.563E-01
DAV:   3    -0.100405119755E+03    0.16356E-02   -0.65185E-03   912   0.384E-01    0.213E-01
DAV:   4    -0.100405088033E+03    0.31723E-04   -0.21261E-04   568   0.764E-02
  56 F= -.10040509E+03 E0= -.10038158E+03  d E =-.662113E-02
 ZBRENT: can't locate minimum, use default step
 trial-energy change:   -0.006621  1 .order   -0.005494   -0.005965   -0.005024
 step:   0.0777(harm=  0.1231)  dis= 0.00601  next Energy=  -100.417379 (dE=-0.189E-01)
 bond charge predicted
       N       E                     dE             d eps       ncg     rms          rms(c)
DAV:   1    -0.100416777286E+03   -0.11658E-01   -0.37449E-01   832   0.160E+00    0.223E-01
DAV:   2    -0.100427951692E+03   -0.11174E-01   -0.15107E-02   904   0.755E-01    0.144E+00
DAV:   3    -0.100419755523E+03    0.81962E-02   -0.50273E-02  1032   0.101E+00    0.630E-01
DAV:   4    -0.100417381617E+03    0.23739E-02   -0.35753E-03   952   0.400E-01    0.178E-01
DAV:   5    -0.100417917953E+03   -0.53634E-03   -0.19291E-03   920   0.277E-01    0.339E-01
DAV:   6    -0.100417669643E+03    0.24831E-03   -0.92184E-04   752   0.219E-01    0.298E-01
DAV:   7    -0.100417241443E+03    0.42820E-03   -0.11696E-03   864   0.258E-01    0.113E-01
DAV:   8    -0.100417163660E+03    0.77783E-04   -0.37596E-04   528   0.134E-01
  57 F= -.10041716E+03 E0= -.10039376E+03  d E =-.186968E-01
 curvature:  -0.08 expect dE=-0.829E-02 dE for cont linesearch -0.207E-02
 ZBRENT: increasing intervall
 opt :   0.1942  next Energy=  -100.413350 (dE=-0.149E-01)
 bond charge predicted
       N       E                     dE             d eps       ncg     rms          rms(c)
DAV:   1    -0.100416934355E+03    0.30709E-03   -0.14945E+00   832   0.319E+00    0.401E-01
DAV:   2    -0.100432247893E+03   -0.15314E-01   -0.33332E-02   872   0.968E-01    0.160E+00
DAV:   3    -0.100424663793E+03    0.75841E-02   -0.75135E-02  1008   0.129E+00    0.103E+00
DAV:   4    -0.100419887913E+03    0.47759E-02   -0.54127E-03   960   0.490E-01    0.443E-01
DAV:   5    -0.100419540577E+03    0.34734E-03   -0.34159E-03   904   0.440E-01    0.406E-01
DAV:   6    -0.100423200293E+03   -0.36597E-02   -0.76037E-03   992   0.596E-01    0.741E-01
DAV:   7    -0.100420626288E+03    0.25740E-02   -0.11401E-02  1088   0.842E-01    0.470E-01
DAV:   8    -0.100418874999E+03    0.17513E-02   -0.60628E-03   856   0.456E-01    0.208E-01
DAV:   9    -0.100418719179E+03    0.15582E-03   -0.16356E-04   520   0.565E-02    0.150E-01
DAV:  10    -0.100418643613E+03    0.75566E-04   -0.67522E-05   488   0.359E-02
  58 F= -.10041864E+03 E0= -.10039524E+03  d E =-.201767E-01
 curvature:   0.15 expect dE= 0.862E-01 dE for cont linesearch  0.478E-03
 trial: gam= 2.42394 g(F)=  0.571E+00 g(S)=  0.000E+00 ort =-0.400E-01 (trialstep = 0.821E-02)
 search vector abs. value=  0.335E+01
 bond charge predicted
       N       E                     dE             d eps       ncg     rms          rms(c)
DAV:   1    -0.100421490452E+03   -0.27713E-02   -0.54107E-02   832   0.600E-01    0.976E-02
DAV:   2    -0.100427420073E+03   -0.59296E-02   -0.66002E-03  1016   0.546E-01    0.102E+00
DAV:   3    -0.100422090620E+03    0.53295E-02   -0.17908E-02  1056   0.645E-01    0.290E-01
DAV:   4    -0.100421697844E+03    0.39278E-03   -0.47043E-04   672   0.114E-01    0.142E-01
DAV:   5    -0.100421562280E+03    0.13556E-03   -0.12383E-04   504   0.820E-02    0.829E-02
DAV:   6    -0.100421709489E+03   -0.14721E-03   -0.12859E-04   520   0.890E-02    0.157E-01
DAV:   7    -0.100421596462E+03    0.11303E-03   -0.33856E-04   488   0.148E-01    0.706E-02
DAV:   8    -0.100421555516E+03    0.40946E-04   -0.90962E-05   504   0.778E-02
  59 F= -.10042156E+03 E0= -.10039823E+03  d E =-.291190E-02
 ZBRENT: can't locate minimum, use default step
 trial-energy change:   -0.002912  1 .order   -0.003521   -0.003891   -0.003152
 step:   0.0328(harm=  0.0432)  dis= 0.00698  next Energy=  -100.428880 (dE=-0.102E-01)
 bond charge predicted
       N       E                     dE             d eps       ncg     rms          rms(c)
DAV:   1    -0.100425074631E+03   -0.34782E-02   -0.48689E-01   832   0.180E+00    0.188E-01
DAV:   2    -0.100429102831E+03   -0.40282E-02   -0.10342E-02   880   0.510E-01    0.779E-01
DAV:   3    -0.100427060242E+03    0.20426E-02   -0.16352E-02  1000   0.645E-01    0.500E-01
DAV:   4    -0.100425929004E+03    0.11312E-02   -0.11191E-03   840   0.211E-01    0.217E-01
DAV:   5    -0.100425806187E+03    0.12282E-03   -0.58596E-04   648   0.184E-01    0.197E-01
DAV:   6    -0.100426654480E+03   -0.84829E-03   -0.12512E-03   752   0.256E-01    0.345E-01
DAV:   7    -0.100426048132E+03    0.60635E-03   -0.25097E-03   848   0.396E-01    0.222E-01
DAV:   8    -0.100425712639E+03    0.33549E-03   -0.97151E-04   584   0.218E-01    0.103E-01
DAV:   9    -0.100425666590E+03    0.46048E-04   -0.48972E-05   496   0.342E-02
  60 F= -.10042567E+03 E0= -.10040229E+03  d E =-.702298E-02
 curvature:  -0.14 expect dE=-0.348E-01 dE for cont linesearch -0.413E-03
 trial: gam=-0.03007 g(F)=  0.250E+00 g(S)=  0.000E+00 ort = 0.996E-01 (trialstep = 0.131E-01)
 search vector abs. value=  0.247E+00
 bond charge predicted
       N       E                     dE             d eps       ncg     rms          rms(c)
DAV:   1    -0.100428686414E+03   -0.29738E-02   -0.69780E-03   832   0.229E-01    0.675E-02
DAV:   2    -0.100436425796E+03   -0.77394E-02   -0.78140E-03  1120   0.638E-01    0.115E+00
DAV:   3    -0.100428793931E+03    0.76319E-02   -0.14744E-02  1072   0.580E-01    0.515E-02
DAV:   4    -0.100428743394E+03    0.50537E-04   -0.28612E-04   648   0.107E-01
  61 F= -.10042874E+03 E0= -.10040530E+03  d E =-.307680E-02
 ZBRENT: can't locate minimum, use default step
 trial-energy change:   -0.003077  1 .order   -0.002992   -0.003244   -0.002740
 step:   0.0526(harm=  0.0845)  dis= 0.00171  next Energy=  -100.436096 (dE=-0.104E-01)
 bond charge predicted
       N       E                     dE             d eps       ncg     rms          rms(c)
DAV:   1    -0.100434390501E+03   -0.55966E-02   -0.62880E-02   832   0.690E-01    0.107E-01
DAV:   2    -0.100436535363E+03   -0.21449E-02   -0.31298E-03   912   0.347E-01    0.618E-01
DAV:   3    -0.100434523492E+03    0.20119E-02   -0.53191E-03   920   0.365E-01    0.138E-01
DAV:   4    -0.100434511480E+03    0.12013E-04   -0.29353E-04   544   0.116E-01
  62 F= -.10043451E+03 E0= -.10041136E+03  d E =-.884489E-02
 curvature:  -0.03 expect dE=-0.314E-02 dE for cont linesearch -0.781E-03
 trial: gam= 0.06482 g(F)=  0.928E-01 g(S)=  0.000E+00 ort = 0.756E-01 (trialstep = 0.210E-01)
 search vector abs. value=  0.104E+00
 bond charge predicted
       N       E                     dE             d eps       ncg     rms          rms(c)
DAV:   1    -0.100436298358E+03   -0.17749E-02   -0.85081E-03   832   0.272E-01    0.109E-01
DAV:   2    -0.100437857052E+03   -0.15587E-02   -0.25697E-03   912   0.338E-01    0.387E-01
DAV:   3    -0.100437426315E+03    0.43074E-03   -0.34674E-03   920   0.436E-01    0.474E-01
DAV:   4    -0.100436299771E+03    0.11265E-02   -0.24423E-03   712   0.251E-01    0.954E-02
DAV:   5    -0.100436304967E+03   -0.51959E-05   -0.11309E-04   504   0.552E-02
  63 F= -.10043630E+03 E0= -.10041300E+03  d E =-.179349E-02
 ZBRENT: can't locate minimum, use default step
 trial-energy change:   -0.001793  1 .order   -0.001868   -0.002054   -0.001682
 step:   0.0841(harm=  0.1160)  dis= 0.00194  next Energy=  -100.440179 (dE=-0.567E-02)
 bond charge predicted
       N       E                     dE             d eps       ncg     rms          rms(c)
DAV:   1    -0.100439428674E+03   -0.31289E-02   -0.75103E-02   832   0.750E-01    0.202E-01
DAV:   2    -0.100480371032E+03   -0.40942E-01   -0.38286E-02  1160   0.145E+00    0.271E+00
DAV:   3    -0.100440511943E+03    0.39859E-01   -0.65661E-02  1216   0.131E+00    0.176E-01
DAV:   4    -0.100439810973E+03    0.70097E-03   -0.22350E-03   944   0.278E-01    0.239E-01
DAV:   5    -0.100439409066E+03    0.40191E-03   -0.64123E-04   736   0.161E-01    0.119E-01
DAV:   6    -0.100439408130E+03    0.93644E-06   -0.27494E-04   584   0.909E-02
  64 F= -.10043941E+03 E0= -.10041613E+03  d E =-.489665E-02
 curvature:  -0.05 expect dE=-0.536E-02 dE for cont linesearch -0.432E-03
 trial: gam= 0.00000 g(F)=  0.983E-01 g(S)=  0.000E+00 ort = 0.286E-01 (trialstep = 0.336E-01)
 search vector abs. value=  0.983E-01
 bond charge predicted
       N       E                     dE             d eps       ncg     rms          rms(c)
DAV:   1    -0.100441278801E+03   -0.18697E-02   -0.27873E-02   832   0.472E-01    0.578E-02
DAV:   2    -0.100441684999E+03   -0.40620E-03   -0.12298E-03   864   0.191E-01    0.208E-01
DAV:   3    -0.100441518382E+03    0.16662E-03   -0.81894E-04   640   0.193E-01    0.181E-01
DAV:   4    -0.100441310115E+03    0.20827E-03   -0.21833E-04   512   0.826E-02    0.450E-02
DAV:   5    -0.100441348674E+03   -0.38560E-04   -0.12516E-04   520   0.885E-02
  65 F= -.10044135E+03 E0= -.10041790E+03  d E =-.194054E-02
 trial-energy change:   -0.001941  1 .order   -0.001938   -0.003305   -0.000570
 step:   0.0406(harm=  0.0406)  dis= 0.00093  next Energy=  -100.441405 (dE=-0.200E-02)
 bond charge predicted
       N       E                     dE             d eps       ncg     rms          rms(c)
DAV:   1    -0.100441340796E+03   -0.30681E-04   -0.12161E-03   856   0.115E-01    0.310E-02
DAV:   2    -0.100441385339E+03   -0.44543E-04   -0.91625E-05   504   0.633E-02    0.758E-02
DAV:   3    -0.100441366039E+03    0.19300E-04   -0.89844E-05   512   0.724E-02    0.736E-02
DAV:   4    -0.100441359085E+03    0.69534E-05   -0.80286E-05   480   0.585E-02
  66 F= -.10044136E+03 E0= -.10041796E+03  d E =-.195096E-02
 curvature:  -0.02 expect dE=-0.121E-02 dE for cont linesearch -0.115E-05
 trial: gam= 0.62745 g(F)=  0.593E-01 g(S)=  0.000E+00 ort =-0.236E-02 (trialstep = 0.350E-01)
 search vector abs. value=  0.950E-01
 bond charge predicted
       N       E                     dE             d eps       ncg     rms          rms(c)
DAV:   1    -0.100443160995E+03   -0.17950E-02   -0.26397E-02   832   0.431E-01    0.684E-02
DAV:   2    -0.100445077047E+03   -0.19161E-02   -0.23948E-03   920   0.348E-01    0.542E-01
DAV:   3    -0.100443252309E+03    0.18247E-02   -0.18851E-03   856   0.301E-01    0.947E-02
DAV:   4    -0.100443214916E+03    0.37394E-04   -0.32904E-04   640   0.113E-01
  67 F= -.10044321E+03 E0= -.10041982E+03  d E =-.185583E-02
 ZBRENT: can't locate minimum, use default step
 trial-energy change:   -0.001856  1 .order   -0.001864   -0.002025   -0.001702
 step:   0.1401(harm=  0.2191)  dis= 0.00457  next Energy=  -100.447693 (dE=-0.633E-02)
 bond charge predicted
       N       E                     dE             d eps       ncg     rms          rms(c)
DAV:   1    -0.100446525206E+03   -0.32729E-02   -0.23642E-01   832   0.129E+00    0.204E-01
DAV:   2    -0.100471910122E+03   -0.25385E-01   -0.33039E-02  1152   0.124E+00    0.192E+00
DAV:   3    -0.100447689764E+03    0.24220E-01   -0.23264E-02  1088   0.102E+00    0.201E-01
DAV:   4    -0.100446930651E+03    0.75911E-03   -0.23223E-03   928   0.325E-01    0.246E-01
DAV:   5    -0.100448127467E+03   -0.11968E-02   -0.19488E-03   928   0.306E-01    0.402E-01
DAV:   6    -0.100446851809E+03    0.12757E-02   -0.45755E-03   944   0.416E-01    0.209E-01
DAV:   7    -0.100446817405E+03    0.34404E-04   -0.50686E-04   680   0.873E-02
  68 F= -.10044682E+03 E0= -.10042315E+03  d E =-.545832E-02
 curvature:  -0.15 expect dE=-0.857E-02 dE for cont linesearch -0.438E-03
 trial: gam= 0.65979 g(F)=  0.583E-01 g(S)=  0.000E+00 ort = 0.168E-01 (trialstep = 0.437E-01)
 search vector abs. value=  0.122E+00
 bond charge predicted
       N       E                     dE             d eps       ncg     rms          rms(c)
DAV:   1    -0.100448686625E+03   -0.18348E-02   -0.60622E-02   832   0.678E-01    0.850E-02
DAV:   2    -0.100454683154E+03   -0.59965E-02   -0.75122E-03  1032   0.570E-01    0.101E+00
DAV:   3    -0.100448972948E+03    0.57102E-02   -0.13979E-02  1056   0.578E-01    0.155E-01
DAV:   4    -0.100448823004E+03    0.14994E-03   -0.32129E-04   624   0.750E-02    0.862E-02
DAV:   5    -0.100448848729E+03   -0.25725E-04   -0.11835E-04   520   0.724E-02
  69 F= -.10044885E+03 E0= -.10042539E+03  d E =-.203132E-02
 trial-energy change:   -0.002031  1 .order   -0.002212   -0.003033   -0.001391
 step:   0.0807(harm=  0.0807)  dis= 0.00293  next Energy=  -100.449618 (dE=-0.280E-02)
 bond charge predicted
       N       E                     dE             d eps       ncg     rms          rms(c)
DAV:   1    -0.100449195553E+03   -0.37255E-03   -0.43574E-02   832   0.569E-01    0.809E-02
DAV:   2    -0.100451321093E+03   -0.21255E-02   -0.30071E-03   928   0.333E-01    0.605E-01
DAV:   3    -0.100449718255E+03    0.16028E-02   -0.74733E-03   928   0.434E-01    0.270E-01
DAV:   4    -0.100449314254E+03    0.40400E-03   -0.48917E-04   624   0.149E-01    0.103E-01
DAV:   5    -0.100449315067E+03   -0.81336E-06   -0.19960E-04   520   0.108E-01
  70 F= -.10044932E+03 E0= -.10042608E+03  d E =-.249766E-02
 curvature:  -0.07 expect dE=-0.494E-02 dE for cont linesearch -0.648E-07
 trial: gam= 1.47898 g(F)=  0.697E-01 g(S)=  0.000E+00 ort = 0.334E-03 (trialstep = 0.185E-01)
 search vector abs. value=  0.337E+00
 bond charge predicted
       N       E                     dE             d eps       ncg     rms          rms(c)
DAV:   1    -0.100450387971E+03   -0.10737E-02   -0.31176E-02   840   0.461E-01    0.129E-01
DAV:   2    -0.100475910072E+03   -0.25522E-01   -0.24944E-02  1168   0.114E+00    0.213E+00
DAV:   3    -0.100451194396E+03    0.24716E-01   -0.60169E-02  1200   0.109E+00    0.228E-01
DAV:   4    -0.100450507751E+03    0.68664E-03   -0.11239E-03   904   0.178E-01    0.154E-01
DAV:   5    -0.100450362851E+03    0.14490E-03   -0.16493E-04   520   0.846E-02    0.743E-02
DAV:   6    -0.100450458592E+03   -0.95740E-04   -0.87987E-05   520   0.743E-02
  71 F= -.10045046E+03 E0= -.10042689E+03  d E =-.114352E-02
 ZBRENT: can't locate minimum, use default step
 trial-energy change:   -0.001144  1 .order   -0.001218   -0.001296   -0.001139
 step:   0.0739(harm=  0.1518)  dis= 0.00508  next Energy=  -100.454644 (dE=-0.533E-02)
 bond charge predicted
       N       E                     dE             d eps       ncg     rms          rms(c)
DAV:   1    -0.100452272965E+03   -0.19101E-02   -0.27815E-01   832   0.132E+00    0.868E-02
DAV:   2    -0.100452851611E+03   -0.57865E-03   -0.41102E-03   896   0.236E-01    0.209E-01
DAV:   3    -0.100453601374E+03   -0.74976E-03   -0.34648E-03   800   0.315E-01    0.403E-01
DAV:   4    -0.100452641302E+03    0.96007E-03   -0.90055E-04   608   0.217E-01    0.107E-01
DAV:   5    -0.100452591228E+03    0.50074E-04   -0.67777E-05   512   0.429E-02
  72 F= -.10045259E+03 E0= -.10042918E+03  d E =-.327616E-02
 curvature:  -0.24 expect dE=-0.340E-01 dE for cont linesearch -0.756E-03
 trial: gam= 0.00000 g(F)=  0.142E+00 g(S)=  0.000E+00 ort = 0.326E-01 (trialstep = 0.295E-01)
 search vector abs. value=  0.142E+00
 bond charge predicted
       N       E                     dE             d eps       ncg     rms          rms(c)
DAV:   1    -0.100455378640E+03   -0.27373E-02   -0.31217E-02   832   0.522E-01    0.228E-01
DAV:   2    -0.100580516363E+03   -0.12514E+00   -0.10267E-01  1192   0.245E+00    0.473E+00
DAV:   3    -0.100458690509E+03    0.12183E+00   -0.31795E-01  1296   0.225E+00    0.242E-01
DAV:   4    -0.100455190297E+03    0.35002E-02   -0.41494E-03   936   0.358E-01    0.163E-01
DAV:   5    -0.100455125833E+03    0.64464E-04   -0.48484E-04   824   0.104E-01
  73 F= -.10045513E+03 E0= -.10043159E+03  d E =-.253461E-02
 trial-energy change:   -0.002535  1 .order   -0.002458   -0.004182   -0.000735
 step:   0.0358(harm=  0.0358)  dis= 0.00262  next Energy=  -100.455128 (dE=-0.254E-02)
 bond charge predicted
       N       E                     dE             d eps       ncg     rms          rms(c)
DAV:   1    -0.100455413860E+03   -0.22356E-03   -0.14985E-03   888   0.145E-01    0.173E-01
DAV:   2    -0.100538341169E+03   -0.82927E-01   -0.71970E-02  1216   0.203E+00    0.385E+00
DAV:   3    -0.100457377482E+03    0.80964E-01   -0.19364E-01  1256   0.181E+00    0.131E-01
DAV:   4    -0.100455232658E+03    0.21448E-02   -0.23284E-03   928   0.262E-01    0.140E-01
DAV:   5    -0.100455339244E+03   -0.10659E-03   -0.28666E-04   600   0.886E-02    0.157E-01
DAV:   6    -0.100455230607E+03    0.10864E-03   -0.67839E-05   496   0.455E-02    0.859E-02
DAV:   7    -0.100455151716E+03    0.78890E-04   -0.73962E-05   512   0.676E-02
  74 F= -.10045515E+03 E0= -.10043178E+03  d E =-.256049E-02
 curvature:  -0.02 expect dE=-0.367E-03 dE for cont linesearch -0.864E-07
 trial: gam= 0.13891 g(F)=  0.205E-01 g(S)=  0.000E+00 ort = 0.826E-03 (trialstep = 0.308E-01)
 search vector abs. value=  0.234E-01
 reached required accuracy - stopping structural energy minimisation
