<?xml version="1.0" encoding="ISO-8859-1"?>
<modeling>
 <generator>
  <i name="program" type="string">vasp </i>
  <i name="version" type="string">6.2.0  </i>
  <i name="subversion" type="string">18Jan21 (build Feb  1 2022 01:28:57) complex                          parallel </i>
  <i name="platform" type="string">LinuxPGI </i>
  <i name="date" type="string">2022 05 17 </i>
  <i name="time" type="string">22:32:35 </i>
 </generator>
 <incar>
  <i type="string" name="PREC">Normal</i>
  <i type="string" name="ALGO">38</i>
  <i type="int" name="ISPIN">     1</i>
  <i name="AMIX">      0.20000000</i>
  <i name="BMIX">      0.00100000</i>
  <i name="AMIN">      0.01000000</i>
  <i type="int" name="NELM">    60</i>
  <i type="int" name="NELMIN">     4</i>
  <i type="int" name="IBRION">     2</i>
  <i name="EDIFF">      0.00010000</i>
  <i name="EDIFFG">      0.00100000</i>
  <i type="int" name="NSW">   300</i>
  <i type="int" name="ISIF">     0</i>
  <i type="int" name="ISYM">     0</i>
  <i name="SYMPREC">      0.00001000</i>
  <i name="ENCUT">    420.00000000</i>
  <i type="logical" name="LREAL"> T  </i>
  <i type="int" name="ISMEAR">     0</i>
  <i name="SIGMA">      0.05000000</i>
  <i type="logical" name="LWAVE"> F  </i>
  <i type="logical" name="LVTOT"> F  </i>
  <i type="int" name="LORBIT">    11</i>
  <i type="logical" name="LASPH"> F  </i>
  <i type="string" name="GGA">RP</i>
 </incar>
 <primitive_cell>
  <structure name="primitive_cell" >
   <crystal>
    <varray name="basis" >
     <v>       5.63307200       0.00000000       0.21554300 </v>
     <v>       2.81241200       4.88076200       0.21554300 </v>
     <v>       0.00000000       0.00000000      36.85793800 </v>
    </varray>
    <i name="volume">   1013.36049145 </i>
    <varray name="rec_basis" >
     <v>       0.17752303      -0.10229302       0.00000000 </v>
     <v>       0.00000000       0.20488604       0.00000000 </v>
     <v>      -0.00103814      -0.00059996       0.02713120 </v>
    </varray>
   </crystal>
   <varray name="positions" >
    <v>       0.01562500       0.14062500       0.40625000 </v>
    <v>       0.01562500       0.64062500       0.40625000 </v>
    <v>       0.51562500       0.14062500       0.40625000 </v>
    <v>       0.51562500       0.64062500       0.40625000 </v>
    <v>       0.17187500       0.29687500       0.46875000 </v>
    <v>       0.17187500       0.79687500       0.46875000 </v>
    <v>       0.67187500       0.29687500       0.46875000 </v>
    <v>       0.67187500       0.79687500       0.46875000 </v>
    <v>       0.34279200       0.40917300       0.53212600 </v>
    <v>       0.34280300       0.90913800       0.53213200 </v>
    <v>       0.84276600       0.40926100       0.53214000 </v>
    <v>       0.84287500       0.90923400       0.53213200 </v>
    <v>       0.51315900       0.01054900       0.59867100 </v>
    <v>       0.51312600       0.51050900       0.59868400 </v>
    <v>       0.01312100       0.01049300       0.59868600 </v>
    <v>       0.01311400       0.51052300       0.59868100 </v>
    <v>       0.67075000       0.16813100       0.65299600 </v>
    <v>       0.66554300       0.16292400       0.68423600 </v>
   </varray>
  </structure>
  <varray name="primitive_index" >
   <v type="int" >        1 </v>
   <v type="int" >        2 </v>
   <v type="int" >        3 </v>
   <v type="int" >        4 </v>
   <v type="int" >        5 </v>
   <v type="int" >        6 </v>
   <v type="int" >        7 </v>
   <v type="int" >        8 </v>
   <v type="int" >        9 </v>
   <v type="int" >       10 </v>
   <v type="int" >       11 </v>
   <v type="int" >       12 </v>
   <v type="int" >       13 </v>
   <v type="int" >       14 </v>
   <v type="int" >       15 </v>
   <v type="int" >       16 </v>
   <v type="int" >       17 </v>
   <v type="int" >       18 </v>
  </varray>
 </primitive_cell>
 <kpoints>
  <generation param="Gamma">
   <v type="int" name="divisions">       2        2        1 </v>
   <v name="usershift">      0.00000000       0.00000000       0.00000000 </v>
   <v name="genvec1">      0.50000000       0.00000000       0.00000000 </v>
   <v name="genvec2">      0.00000000       0.50000000       0.00000000 </v>
   <v name="genvec3">      0.00000000       0.00000000       1.00000000 </v>
   <v name="shift">      0.00000000       0.00000000       0.00000000 </v>
  </generation>
  <varray name="kpointlist" >
   <v>       0.00000000       0.00000000       0.00000000 </v>
   <v>       0.50000000       0.00000000       0.00000000 </v>
   <v>       0.00000000       0.50000000       0.00000000 </v>
   <v>       0.50000000       0.50000000       0.00000000 </v>
  </varray>
  <varray name="weights" >
   <v>       0.25000000 </v>
   <v>       0.25000000 </v>
   <v>       0.25000000 </v>
   <v>       0.25000000 </v>
  </varray>
 </kpoints>
 <parameters>
  <separator name="general" >
   <i type="string" name="SYSTEM">unknown system</i>
   <i type="logical" name="LCOMPAT"> F  </i>
  </separator>
  <separator name="electronic" >
   <i type="string" name="PREC">normal</i>
   <i name="ENMAX">    420.00000000</i>
   <i name="ENAUG">    644.87300000</i>
   <i name="EDIFF">      0.00010000</i>
   <i type="int" name="IALGO">    38</i>
   <i type="int" name="IWAVPR">    11</i>
   <i type="int" name="NBANDS">   104</i>
   <i type="int" name="NBANDSLOW">    -1</i>
   <i type="int" name="NBANDSHIGH">    -1</i>
   <i name="NELECT">    170.00000000</i>
   <i type="int" name="TURBO">     0</i>
   <i type="int" name="IRESTART">     0</i>
   <i type="int" name="NREBOOT">     0</i>
   <i type="int" name="NMIN">     0</i>
   <i name="EREF">      0.00000000</i>
   <separator name="electronic smearing" >
    <i type="int" name="ISMEAR">     0</i>
    <i name="SIGMA">      0.05000000</i>
    <i name="KSPACING">      0.50000000</i>
    <i type="logical" name="KGAMMA"> T  </i>
    <i type="logical" name="KBLOWUP"> T  </i>
   </separator>
   <separator name="electronic projectors" >
    <i type="logical" name="LREAL"> T  </i>
    <v name="ROPT">      0.00000000      0.00000000      0.00000000</v>
    <i type="int" name="LMAXPAW">  -100</i>
    <i type="int" name="LMAXMIX">     2</i>
    <i type="logical" name="NLSPLINE"> F  </i>
   </separator>
   <separator name="electronic startup" >
    <i type="int" name="ISTART">     0</i>
    <i type="int" name="ICHARG">     2</i>
    <i type="int" name="INIWAV">     1</i>
   </separator>
   <separator name="electronic spin" >
    <i type="int" name="ISPIN">     1</i>
    <i type="logical" name="LNONCOLLINEAR"> F  </i>
    <v name="MAGMOM">      1.00000000      1.00000000      1.00000000      1.00000000      1.00000000      1.00000000      1.00000000      1.00000000      1.00000000      1.00000000      1.00000000      1.00000000      1.00000000      1.00000000      1.00000000      1.00000000      1.00000000      1.00000000</v>
    <i name="NUPDOWN">     -1.00000000</i>
    <i type="logical" name="LSORBIT"> F  </i>
    <v name="SAXIS">      0.00000000      0.00000000      1.00000000</v>
    <i type="logical" name="LSPIRAL"> F  </i>
    <v name="QSPIRAL">      0.00000000      0.00000000      0.00000000</v>
    <i type="logical" name="LZEROZ"> F  </i>
   </separator>
   <separator name="electronic exchange-correlation" >
    <i type="logical" name="LASPH"> F  </i>
    <i type="logical" name="LMETAGGA"> F  </i>
   </separator>
   <separator name="electronic convergence" >
    <i type="int" name="NELM">    60</i>
    <i type="int" name="NELMDL">    -5</i>
    <i type="int" name="NELMIN">     4</i>
    <i name="ENINI">    420.00000000</i>
    <separator name="electronic convergence detail" >
     <i type="logical" name="LDIAG"> T  </i>
     <i type="logical" name="LSUBROT"> F  </i>
     <i name="WEIMIN">      0.00100000</i>
     <i name="EBREAK">      0.00000024</i>
     <i name="DEPER">      0.30000000</i>
     <i type="int" name="NRMM">     4</i>
     <i name="TIME">      0.40000000</i>
    </separator>
   </separator>
   <separator name="electronic mixer" >
    <i name="AMIX">      0.20000000</i>
    <i name="BMIX">      0.00100000</i>
    <i name="AMIN">      0.01000000</i>
    <i name="AMIX_MAG">      0.80000000</i>
    <i name="BMIX_MAG">      0.00100000</i>
    <separator name="electronic mixer details" >
     <i type="int" name="IMIX">     4</i>
     <i type="logical" name="MIXFIRST"> F  </i>
     <i type="int" name="MAXMIX">   -45</i>
     <i name="WC">    100.00000000</i>
     <i type="int" name="INIMIX">     1</i>
     <i type="int" name="MIXPRE">     1</i>
     <i type="int" name="MREMOVE">     5</i>
    </separator>
   </separator>
   <separator name="electronic dipolcorrection" >
    <i type="logical" name="LDIPOL"> F  </i>
    <i type="logical" name="LMONO"> F  </i>
    <i type="int" name="IDIPOL">     0</i>
    <i name="EPSILON">      1.00000000</i>
    <v name="DIPOL">   -100.00000000   -100.00000000   -100.00000000</v>
    <i name="EFIELD">      0.00000000</i>
   </separator>
  </separator>
  <separator name="grids" >
   <i type="int" name="NGX">    28</i>
   <i type="int" name="NGY">    28</i>
   <i type="int" name="NGZ">   192</i>
   <i type="int" name="NGXF">    56</i>
   <i type="int" name="NGYF">    56</i>
   <i type="int" name="NGZF">   384</i>
   <i type="logical" name="ADDGRID"> F  </i>
  </separator>
  <separator name="ionic" >
   <i type="int" name="NSW">   300</i>
   <i type="int" name="IBRION">     2</i>
   <i type="int" name="MDALGO">     0</i>
   <i type="int" name="ISIF">     0</i>
   <i name="PSTRESS">      0.00000000</i>
   <i name="EDIFFG">      0.00100000</i>
   <i type="int" name="NFREE">     1</i>
   <i name="POTIM">      0.50000000</i>
   <i name="SMASS">     -3.00000000</i>
   <i name="SCALEE">      1.00000000</i>
  </separator>
  <separator name="ionic md" >
   <i name="TEBEG">      0.00010000</i>
   <i name="TEEND">      0.00010000</i>
   <i type="int" name="NBLOCK">     1</i>
   <i type="int" name="KBLOCK">   300</i>
   <i type="int" name="NPACO">   256</i>
   <i name="APACO">     16.00000000</i>
  </separator>
  <separator name="symmetry" >
   <i type="int" name="ISYM">     0</i>
   <i name="SYMPREC">      0.00001000</i>
  </separator>
  <separator name="dos" >
   <i type="int" name="LORBIT">    11</i>
   <v name="RWIGS">     -1.00000000     -1.00000000     -1.00000000</v>
   <i type="int" name="NEDOS">   301</i>
   <i name="EMIN">     10.00000000</i>
   <i name="EMAX">    -10.00000000</i>
   <i name="EFERMI">      0.00000000</i>
  </separator>
  <separator name="writing" >
   <i type="int" name="NWRITE">     2</i>
   <i type="logical" name="LWAVE"> F  </i>
   <i type="logical" name="LDOWNSAMPLE"> F  </i>
   <i type="logical" name="LCHARG"> T  </i>
   <i type="logical" name="LPARD"> F  </i>
   <i type="logical" name="LVTOT"> F  </i>
   <i type="logical" name="LVHAR"> F  </i>
   <i type="logical" name="LELF"> F  </i>
   <i type="logical" name="LOPTICS"> F  </i>
   <v name="STM">      0.00000000      0.00000000      0.00000000      0.00000000      0.00000000      0.00000000      0.00000000</v>
  </separator>
  <separator name="performance" >
   <i type="int" name="NPAR">     4</i>
   <i type="int" name="NSIM">     4</i>
   <i type="int" name="NBLK">    -1</i>
   <i type="logical" name="LPLANE"> T  </i>
   <i type="logical" name="LSCALAPACK"> T  </i>
   <i type="logical" name="LSCAAWARE"> F  </i>
   <i type="logical" name="LSCALU"> F  </i>
   <i type="logical" name="LASYNC"> F  </i>
   <i type="logical" name="LORBITALREAL"> F  </i>
  </separator>
  <separator name="miscellaneous" >
   <i type="int" name="IDIOT">     3</i>
   <i type="int" name="PHON_NSTRUCT">    -1</i>
   <i type="logical" name="LMUSIC"> F  </i>
   <v name="POMASS">    195.08000000     12.01100000     16.00000000</v>
   <v name="DARWINR">      0.00000000      0.00000000      0.00000000</v>
   <v name="DARWINV">      1.00000000      1.00000000      1.00000000</v>
   <i type="logical" name="LCORR"> T  </i>
  </separator>
  <i type="logical" name="GGA_COMPAT"> T  </i>
  <i type="logical" name="LBERRY"> F  </i>
  <i type="int" name="ICORELEVEL">     0</i>
  <i type="logical" name="LDAU"> F  </i>
  <i type="int" name="I_CONSTRAINED_M">     0</i>
  <separator name="electronic exchange-correlation" >
   <i type="string" name="GGA">RP</i>
   <i type="int" name="VOSKOWN">     0</i>
   <i type="logical" name="LHFCALC"> F  </i>
   <i type="string" name="PRECFOCK"></i>
   <i type="logical" name="LSYMGRAD"> F  </i>
   <i type="logical" name="LHFONE"> F  </i>
   <i type="logical" name="LRHFCALC"> F  </i>
   <i type="logical" name="LTHOMAS"> F  </i>
   <i type="logical" name="LMODELHF"> F  </i>
   <i type="logical" name="LFOCKACE"> F  </i>
   <i name="ENCUT4O">     -1.00000000</i>
   <i type="int" name="EXXOEP">     0</i>
   <i type="int" name="FOURORBIT">     0</i>
   <i name="AEXX">      0.00000000</i>
   <i name="HFALPHA">      0.00000000</i>
   <i name="MCALPHA">      0.00000000</i>
   <i name="ALDAX">      1.00000000</i>
   <i name="AGGAX">      1.00000000</i>
   <i name="ALDAC">      1.00000000</i>
   <i name="AGGAC">      1.00000000</i>
   <i type="int" name="NKREDX">     1</i>
   <i type="int" name="NKREDY">     1</i>
   <i type="int" name="NKREDZ">     1</i>
   <i type="logical" name="SHIFTRED"> F  </i>
   <i type="logical" name="ODDONLY"> F  </i>
   <i type="logical" name="EVENONLY"> F  </i>
   <i type="int" name="LMAXFOCK">     0</i>
   <i type="int" name="NMAXFOCKAE">     0</i>
   <i type="logical" name="LFOCKAEDFT"> F  </i>
   <i name="HFSCREEN">      0.00000000</i>
   <i name="HFSCREENC">      0.00000000</i>
   <i type="int" name="NBANDSGWLOW">     0</i>
  </separator>
  <separator name="vdW DFT" >
   <i type="logical" name="LUSE_VDW"> F  </i>
   <i name="Zab_VDW">     -0.84910000</i>
   <i name="PARAM1">      0.12340000</i>
   <i name="PARAM2">      1.00000000</i>
   <i name="PARAM3">      0.00000000</i>
  </separator>
  <separator name="model GW" >
   <i type="int" name="MODEL_GW">     0</i>
   <i name="MODEL_EPS0">     33.77868305</i>
   <i name="MODEL_ALPHA">      1.00000000</i>
  </separator>
  <separator name="linear response parameters" >
   <i type="logical" name="LEPSILON"> F  </i>
   <i type="logical" name="LRPA"> F  </i>
   <i type="logical" name="LNABLA"> F  </i>
   <i type="logical" name="LVEL"> F  </i>
   <i type="int" name="KINTER">     0</i>
   <i name="CSHIFT">      0.10000000</i>
   <i name="OMEGAMAX">     -1.00000000</i>
   <i name="DEG_THRESHOLD">      0.00200000</i>
   <i name="RTIME">     -0.10000000</i>
   <i name="WPLASMAI">      0.00000000</i>
   <v name="DFIELD">      0.00000000      0.00000000      0.00000000</v>
   <v name="WPLASMA">      0.00000000      0.00000000      0.00000000      0.00000000      0.00000000      0.00000000      0.00000000      0.00000000      0.00000000</v>
  </separator>
  <separator name="orbital magnetization" >
   <i type="logical" name="NUCIND"> F  </i>
   <v name="MAGPOS">      0.00000000      0.00000000      0.00000000</v>
   <i type="logical" name="LNICSALL"> T  </i>
   <i type="logical" name="ORBITALMAG"> F  </i>
   <i type="logical" name="LMAGBLOCH"> F  </i>
   <i type="logical" name="LCHIMAG"> F  </i>
   <i type="logical" name="LGAUGE"> T  </i>
   <i type="int" name="MAGATOM">     0</i>
   <v name="MAGDIPOL">      0.00000000      0.00000000      0.00000000</v>
   <v name="AVECCONST">      0.00000000      0.00000000      0.00000000</v>
  </separator>
  <separator name="response functions" >
   <i type="logical" name="LFINITE_TEMPERATURE"> F  </i>
   <i type="logical" name="LADDER"> F  </i>
   <i type="logical" name="LRPAFORCE"> F  </i>
   <i type="logical" name="LFXC"> F  </i>
   <i type="logical" name="LHARTREE"> T  </i>
   <i type="int" name="IBSE">     0</i>
   <v type="int" name="KPOINT">    -1     0     0     0</v>
   <i type="logical" name="LTCTC"> F  </i>
   <i type="logical" name="LTCTE"> F  </i>
   <i type="logical" name="LTETE"> F  </i>
   <i type="logical" name="LTRIPLET"> F  </i>
   <i type="logical" name="LFXCEPS"> F  </i>
   <i type="logical" name="LFXHEG"> F  </i>
   <i type="int" name="NATURALO">     2</i>
   <i type="logical" name="LHOLEGF"> F  </i>
   <i type="logical" name="L2ORDER"> F  </i>
   <i type="logical" name="LDMP1"> F  </i>
   <i type="logical" name="LMP2LT"> F  </i>
   <i type="logical" name="LSMP2LT"> F  </i>
   <i type="logical" name="LGWLF"> F  </i>
   <i name="ENCUTGW">     -2.00000000</i>
   <i name="ENCUTGWSOFT">     -2.00000000</i>
   <i name="ENCUTLF">     -1.00000000</i>
   <i type="logical" name="LESF_SPLINES"> F  </i>
   <i type="int" name="LMAXMP2">    -1</i>
   <i name="SCISSOR">      0.00000000</i>
   <i type="int" name="NOMEGA">     0</i>
   <i type="int" name="NOMEGAR">     0</i>
   <i type="int" name="NBANDSGW">    -1</i>
   <i type="int" name="NBANDSO">    -1</i>
   <i type="int" name="NBANDSV">    -1</i>
   <i type="int" name="NELM">    60</i>
   <i type="int" name="NELMHF">     1</i>
   <i type="int" name="DIM">     3</i>
   <i type="int" name="IESPILON">     4</i>
   <i type="int" name="ANTIRES">     0</i>
   <i name="OMEGAMAX">    -30.00000000</i>
   <i name="OMEGAMIN">    -30.00000000</i>
   <i name="OMEGATL">   -200.00000000</i>
   <i type="int" name="OMEGAGRID">     0</i>
   <i name="CSHIFT">     -0.10000000</i>
   <i type="logical" name="LSELFENERGY"> F  </i>
   <i type="logical" name="LSPECTRAL"> F  </i>
   <i type="logical" name="LSPECTRALGW"> F  </i>
   <i type="logical" name="LSINGLES"> F  </i>
   <i type="logical" name="LFERMIGW"> F  </i>
   <i type="logical" name="ODDONLYGW"> F  </i>
   <i type="logical" name="EVENONLYGW"> F  </i>
   <i type="int" name="NKREDLFX">     1</i>
   <i type="int" name="NKREDLFY">     1</i>
   <i type="int" name="NKREDLFZ">     1</i>
   <i type="int" name="MAXMEM">  2800</i>
   <i type="int" name="TELESCOPE">     0</i>
   <i type="int" name="NTAUPAR">    -1</i>
   <i type="int" name="NOMEGAPAR">    -1</i>
   <i name="DAMP_NEWTON">      0.80000001</i>
   <i name="LAMBDA">      1.00000000</i>
  </separator>
  <separator name="External order field" >
   <i name="OFIELD_KAPPA">      0.00000000</i>
   <v name="OFIELD_K">      0.00000000      0.00000000      0.00000000</v>
   <i name="OFIELD_Q6_NEAR">      0.00000000</i>
   <i name="OFIELD_Q6_FAR">      0.00000000</i>
   <i name="OFIELD_A">      0.00000000</i>
  </separator>
 </parameters>
 <atominfo>
  <atoms>      18 </atoms>
  <types>       3 </types>
  <array name="atoms" >
   <dimension dim="1">ion</dimension>
   <field type="string">element</field>
   <field type="int">atomtype</field>
   <set>
    <rc><c>Pt</c><c>   1</c></rc>
    <rc><c>Pt</c><c>   1</c></rc>
    <rc><c>Pt</c><c>   1</c></rc>
    <rc><c>Pt</c><c>   1</c></rc>
    <rc><c>Pt</c><c>   1</c></rc>
    <rc><c>Pt</c><c>   1</c></rc>
    <rc><c>Pt</c><c>   1</c></rc>
    <rc><c>Pt</c><c>   1</c></rc>
    <rc><c>Pt</c><c>   1</c></rc>
    <rc><c>Pt</c><c>   1</c></rc>
    <rc><c>Pt</c><c>   1</c></rc>
    <rc><c>Pt</c><c>   1</c></rc>
    <rc><c>Pt</c><c>   1</c></rc>
    <rc><c>Pt</c><c>   1</c></rc>
    <rc><c>Pt</c><c>   1</c></rc>
    <rc><c>Pt</c><c>   1</c></rc>
    <rc><c>C </c><c>   2</c></rc>
    <rc><c>O </c><c>   3</c></rc>
   </set>
  </array>
  <array name="atomtypes" >
   <dimension dim="1">type</dimension>
   <field type="int">atomspertype</field>
   <field type="string">element</field>
   <field>mass</field>
   <field>valence</field>
   <field type="string">pseudopotential</field>
   <set>
    <rc><c>  16</c><c>Pt</c><c>    195.08000000</c><c>     10.00000000</c><c>  PAW_PBE Pt 04Feb2005                  </c></rc>
    <rc><c>   1</c><c>C </c><c>     12.01100000</c><c>      4.00000000</c><c>  PAW_PBE C 08Apr2002                   </c></rc>
    <rc><c>   1</c><c>O </c><c>     16.00000000</c><c>      6.00000000</c><c>  PAW_PBE O 08Apr2002                   </c></rc>
   </set>
  </array>
 </atominfo>
 <structure name="initialpos" >
  <crystal>
   <varray name="basis" >
    <v>       5.63307200       0.00000000       0.21554300 </v>
    <v>       2.81241200       4.88076200       0.21554300 </v>
    <v>       0.00000000       0.00000000      36.85793800 </v>
   </varray>
   <i name="volume">   1013.36049145 </i>
   <varray name="rec_basis" >
    <v>       0.17752303      -0.10229302       0.00000000 </v>
    <v>       0.00000000       0.20488604       0.00000000 </v>
    <v>      -0.00103814      -0.00059996       0.02713120 </v>
   </varray>
  </crystal>
  <varray name="positions" >
   <v>       0.01562500       0.14062500       0.40625000 </v>
   <v>       0.01562500       0.64062500       0.40625000 </v>
   <v>       0.51562500       0.14062500       0.40625000 </v>
   <v>       0.51562500       0.64062500       0.40625000 </v>
   <v>       0.17187500       0.29687500       0.46875000 </v>
   <v>       0.17187500       0.79687500       0.46875000 </v>
   <v>       0.67187500       0.29687500       0.46875000 </v>
   <v>       0.67187500       0.79687500       0.46875000 </v>
   <v>       0.34279200       0.40917300       0.53212600 </v>
   <v>       0.34280300       0.90913800       0.53213200 </v>
   <v>       0.84276600       0.40926100       0.53214000 </v>
   <v>       0.84287500       0.90923400       0.53213200 </v>
   <v>       0.51315900       0.01054900       0.59867100 </v>
   <v>       0.51312600       0.51050900       0.59868400 </v>
   <v>       0.01312100       0.01049300       0.59868600 </v>
   <v>       0.01311400       0.51052300       0.59868100 </v>
   <v>       0.67075000       0.16813100       0.65299600 </v>
   <v>       0.66554300       0.16292400       0.68423600 </v>
  </varray>
  <varray name="selective"  type="logical" >
   <v type="logical" >  F  F  F </v>
   <v type="logical" >  F  F  F </v>
   <v type="logical" >  F  F  F </v>
   <v type="logical" >  F  F  F </v>
   <v type="logical" >  F  F  F </v>
   <v type="logical" >  F  F  F </v>
   <v type="logical" >  F  F  F </v>
   <v type="logical" >  F  F  F </v>
   <v type="logical" >  T  T  T </v>
   <v type="logical" >  T  T  T </v>
   <v type="logical" >  T  T  T </v>
   <v type="logical" >  T  T  T </v>
   <v type="logical" >  T  T  T </v>
   <v type="logical" >  T  T  T </v>
   <v type="logical" >  T  T  T </v>
   <v type="logical" >  T  T  T </v>
   <v type="logical" >  T  T  T </v>
   <v type="logical" >  T  T  T </v>
  </varray>
  <nose>
   <v>      -3.00000000       0.00000000       0.00010000       0.00010000 </v>
  </nose>
 </structure>
 <calculation>
  <scstep>
   <time name="dav">    2.51    2.51</time>
   <time name="total">    2.65    2.66</time>
   <energy>
    <i name="alphaZ">    262.47990408 </i>
    <i name="ewald"> 139515.27451951 </i>
    <i name="hartreedc">-151929.25400856 </i>
    <i name="XCdc">     86.53674229 </i>
    <i name="pawpsdc">  11602.90403888 </i>
    <i name="pawaedc"> -11137.02028253 </i>
    <i name="eentropy">     -0.00475685 </i>
    <i name="bandstr">    506.69347122 </i>
    <i name="atom">  12232.59423587 </i>
    <i name="e_fr_energy">   1140.20386391 </i>
    <i name="e_wo_entrp">   1140.20862076 </i>
    <i name="e_0_energy">   1140.20624234 </i>
   </energy>
  </scstep>
  <scstep>
   <time name="dav">    3.01    3.02</time>
   <time name="total">    3.01    3.02</time>
   <energy>
    <i name="e_fr_energy">      4.31518356 </i>
    <i name="e_wo_entrp">      4.33414914 </i>
    <i name="e_0_energy">      4.32466635 </i>
   </energy>
  </scstep>
  <scstep>
   <time name="dav">    2.86    2.87</time>
   <time name="total">    2.87    2.87</time>
   <energy>
    <i name="e_fr_energy">   -102.24647822 </i>
    <i name="e_wo_entrp">   -102.21898663 </i>
    <i name="e_0_energy">   -102.23273242 </i>
   </energy>
  </scstep>
  <scstep>
   <time name="dav">    3.04    3.05</time>
   <time name="total">    3.04    3.05</time>
   <energy>
    <i name="e_fr_energy">   -106.28840700 </i>
    <i name="e_wo_entrp">   -106.25668410 </i>
    <i name="e_0_energy">   -106.27254555 </i>
   </energy>
  </scstep>
  <scstep>
   <time name="dav">    2.96    2.97</time>
   <time name="total">    3.14    3.15</time>
   <energy>
    <i name="e_fr_energy">   -106.39659202 </i>
    <i name="e_wo_entrp">   -106.36468375 </i>
    <i name="e_0_energy">   -106.38063788 </i>
   </energy>
  </scstep>
  <scstep>
   <time name="dav">    2.66    2.66</time>
   <time name="total">    2.96    2.97</time>
   <energy>
    <i name="e_fr_energy">   -112.62481073 </i>
    <i name="e_wo_entrp">   -112.57906727 </i>
    <i name="e_0_energy">   -112.60193900 </i>
   </energy>
  </scstep>
  <scstep>
   <time name="dav">    2.91    2.91</time>
   <time name="total">    3.23    3.23</time>
   <energy>
    <i name="e_fr_energy">   -107.88395352 </i>
    <i name="e_wo_entrp">   -107.85708635 </i>
    <i name="e_0_energy">   -107.87051993 </i>
   </energy>
  </scstep>
  <scstep>
   <time name="dav">    3.23    3.31</time>
   <time name="total">    3.54    3.62</time>
   <energy>
    <i name="e_fr_energy">   -172.63945725 </i>
    <i name="e_wo_entrp">   -172.62422427 </i>
    <i name="e_0_energy">   -172.63184076 </i>
   </energy>
  </scstep>
  <scstep>
   <time name="dav">    2.80    2.81</time>
   <time name="total">    3.10    3.11</time>
   <energy>
    <i name="e_fr_energy">   -154.55589288 </i>
    <i name="e_wo_entrp">   -154.54649930 </i>
    <i name="e_0_energy">   -154.55119609 </i>
   </energy>
  </scstep>
  <scstep>
   <time name="dav">    2.70    2.70</time>
   <time name="total">    3.00    3.01</time>
   <energy>
    <i name="e_fr_energy">   -152.90228878 </i>
    <i name="e_wo_entrp">   -152.87025907 </i>
    <i name="e_0_energy">   -152.88627392 </i>
   </energy>
  </scstep>
  <scstep>
   <time name="dav">    3.00    3.01</time>
   <time name="total">    3.31    3.31</time>
   <energy>
    <i name="e_fr_energy">   -106.24128041 </i>
    <i name="e_wo_entrp">   -106.20616355 </i>
    <i name="e_0_energy">   -106.22372198 </i>
   </energy>
  </scstep>
  <scstep>
   <time name="dav">    2.55    2.55</time>
   <time name="total">    2.86    2.86</time>
   <energy>
    <i name="e_fr_energy">   -102.78602873 </i>
    <i name="e_wo_entrp">   -102.75248641 </i>
    <i name="e_0_energy">   -102.76925757 </i>
   </energy>
  </scstep>
  <scstep>
   <time name="dav">    2.71    2.72</time>
   <time name="total">    3.03    3.04</time>
   <energy>
    <i name="e_fr_energy">   -101.69203008 </i>
    <i name="e_wo_entrp">   -101.65143703 </i>
    <i name="e_0_energy">   -101.67173355 </i>
   </energy>
  </scstep>
  <scstep>
   <time name="dav">    2.67    2.68</time>
   <time name="total">    2.95    2.96</time>
   <energy>
    <i name="e_fr_energy">   -101.93054487 </i>
    <i name="e_wo_entrp">   -101.89902142 </i>
    <i name="e_0_energy">   -101.91478315 </i>
   </energy>
  </scstep>
  <scstep>
   <time name="dav">    2.58    2.59</time>
   <time name="total">    2.87    2.88</time>
   <energy>
    <i name="e_fr_energy">   -101.20068442 </i>
    <i name="e_wo_entrp">   -101.15365868 </i>
    <i name="e_0_energy">   -101.17717155 </i>
   </energy>
  </scstep>
  <scstep>
   <time name="dav">    2.64    2.64</time>
   <time name="total">    2.93    2.94</time>
   <energy>
    <i name="e_fr_energy">   -101.28536359 </i>
    <i name="e_wo_entrp">   -101.25436488 </i>
    <i name="e_0_energy">   -101.26986423 </i>
   </energy>
  </scstep>
  <scstep>
   <time name="dav">    2.60    2.61</time>
   <time name="total">    2.90    2.90</time>
   <energy>
    <i name="e_fr_energy">   -101.03294993 </i>
    <i name="e_wo_entrp">   -100.99377586 </i>
    <i name="e_0_energy">   -101.01336290 </i>
   </energy>
  </scstep>
  <scstep>
   <time name="dav">    2.98    2.98</time>
   <time name="total">    3.29    3.30</time>
   <energy>
    <i name="e_fr_energy">   -100.51358332 </i>
    <i name="e_wo_entrp">   -100.49327453 </i>
    <i name="e_0_energy">   -100.50342893 </i>
   </energy>
  </scstep>
  <scstep>
   <time name="dav">    2.54    2.54</time>
   <time name="total">    2.85    2.85</time>
   <energy>
    <i name="e_fr_energy">    -99.97891015 </i>
    <i name="e_wo_entrp">    -99.93650465 </i>
    <i name="e_0_energy">    -99.95770740 </i>
   </energy>
  </scstep>
  <scstep>
   <time name="dav">    2.60    2.60</time>
   <time name="total">    2.91    2.91</time>
   <energy>
    <i name="e_fr_energy">    -99.89123708 </i>
    <i name="e_wo_entrp">    -99.84792022 </i>
    <i name="e_0_energy">    -99.86957865 </i>
   </energy>
  </scstep>
  <scstep>
   <time name="dav">    2.61    2.62</time>
   <time name="total">    2.93    2.94</time>
   <energy>
    <i name="e_fr_energy">    -99.84163916 </i>
    <i name="e_wo_entrp">    -99.80253064 </i>
    <i name="e_0_energy">    -99.82208490 </i>
   </energy>
  </scstep>
  <scstep>
   <time name="dav">    2.61    2.62</time>
   <time name="total">    2.93    2.94</time>
   <energy>
    <i name="e_fr_energy">    -99.79555657 </i>
    <i name="e_wo_entrp">    -99.75187245 </i>
    <i name="e_0_energy">    -99.77371451 </i>
   </energy>
  </scstep>
  <scstep>
   <time name="dav">    2.72    2.72</time>
   <time name="total">    3.03    3.03</time>
   <energy>
    <i name="e_fr_energy">    -99.77826575 </i>
    <i name="e_wo_entrp">    -99.73913913 </i>
    <i name="e_0_energy">    -99.75870244 </i>
   </energy>
  </scstep>
  <scstep>
   <time name="dav">    2.60    2.61</time>
   <time name="total">    2.90    2.90</time>
   <energy>
    <i name="e_fr_energy">    -99.72677861 </i>
    <i name="e_wo_entrp">    -99.68434096 </i>
    <i name="e_0_energy">    -99.70555979 </i>
   </energy>
  </scstep>
  <scstep>
   <time name="dav">    2.71    2.72</time>
   <time name="total">    3.01    3.02</time>
   <energy>
    <i name="e_fr_energy">    -99.71208772 </i>
    <i name="e_wo_entrp">    -99.66936708 </i>
    <i name="e_0_energy">    -99.69072740 </i>
   </energy>
  </scstep>
  <scstep>
   <time name="dav">    2.59    2.59</time>
   <time name="total">    2.89    2.90</time>
   <energy>
    <i name="e_fr_energy">    -99.69646708 </i>
    <i name="e_wo_entrp">    -99.65258659 </i>
    <i name="e_0_energy">    -99.67452684 </i>
   </energy>
  </scstep>
  <scstep>
   <time name="dav">    2.55    2.56</time>
   <time name="total">    2.87    2.88</time>
   <energy>
    <i name="e_fr_energy">    -99.68892165 </i>
    <i name="e_wo_entrp">    -99.64247396 </i>
    <i name="e_0_energy">    -99.66569781 </i>
   </energy>
  </scstep>
  <scstep>
   <time name="dav">    2.62    2.63</time>
   <time name="total">    2.93    2.93</time>
   <energy>
    <i name="e_fr_energy">    -99.68489056 </i>
    <i name="e_wo_entrp">    -99.63802237 </i>
    <i name="e_0_energy">    -99.66145647 </i>
   </energy>
  </scstep>
  <scstep>
   <time name="dav">    2.60    2.60</time>
   <time name="total">    2.92    2.93</time>
   <energy>
    <i name="e_fr_energy">    -99.67576765 </i>
    <i name="e_wo_entrp">    -99.62868972 </i>
    <i name="e_0_energy">    -99.65222868 </i>
   </energy>
  </scstep>
  <scstep>
   <time name="dav">    2.51    2.51</time>
   <time name="total">    2.81    2.82</time>
   <energy>
    <i name="e_fr_energy">    -99.66595491 </i>
    <i name="e_wo_entrp">    -99.61816726 </i>
    <i name="e_0_energy">    -99.64206109 </i>
   </energy>
  </scstep>
  <scstep>
   <time name="dav">    2.71    2.71</time>
   <time name="total">    3.02    3.02</time>
   <energy>
    <i name="e_fr_energy">    -99.65451910 </i>
    <i name="e_wo_entrp">    -99.60701951 </i>
    <i name="e_0_energy">    -99.63076930 </i>
   </energy>
  </scstep>
  <scstep>
   <time name="dav">    2.04    2.05</time>
   <time name="total">    2.36    2.37</time>
   <energy>
    <i name="e_fr_energy">    -99.64940269 </i>
    <i name="e_wo_entrp">    -99.60221875 </i>
    <i name="e_0_energy">    -99.62581072 </i>
   </energy>
  </scstep>
  <scstep>
   <time name="dav">    1.71    1.72</time>
   <time name="total">    2.03    2.04</time>
   <energy>
    <i name="e_fr_energy">    -99.64860516 </i>
    <i name="e_wo_entrp">    -99.60141332 </i>
    <i name="e_0_energy">    -99.62500924 </i>
   </energy>
  </scstep>
  <scstep>
   <time name="dav">    2.49    2.50</time>
   <time name="total">    2.81    2.82</time>
   <energy>
    <i name="e_fr_energy">    -99.63361460 </i>
    <i name="e_wo_entrp">    -99.58747503 </i>
    <i name="e_0_energy">    -99.61054482 </i>
   </energy>
  </scstep>
  <scstep>
   <time name="dav">    2.71    2.71</time>
   <time name="total">    3.03    3.03</time>
   <energy>
    <i name="e_fr_energy">    -99.62545819 </i>
    <i name="e_wo_entrp">    -99.58029152 </i>
    <i name="e_0_energy">    -99.60287486 </i>
   </energy>
  </scstep>
  <scstep>
   <time name="dav">    2.59    2.59</time>
   <time name="total">    2.90    2.91</time>
   <energy>
    <i name="e_fr_energy">    -99.62360160 </i>
    <i name="e_wo_entrp">    -99.57851410 </i>
    <i name="e_0_energy">    -99.60105785 </i>
   </energy>
  </scstep>
  <scstep>
   <time name="dav">    2.60    2.60</time>
   <time name="total">    2.91    2.93</time>
   <energy>
    <i name="e_fr_energy">    -99.61984202 </i>
    <i name="e_wo_entrp">    -99.57537466 </i>
    <i name="e_0_energy">    -99.59760834 </i>
   </energy>
  </scstep>
  <scstep>
   <time name="dav">    2.66    2.66</time>
   <time name="total">    2.95    2.95</time>
   <energy>
    <i name="e_fr_energy">    -99.61855670 </i>
    <i name="e_wo_entrp">    -99.57432217 </i>
    <i name="e_0_energy">    -99.59643943 </i>
   </energy>
  </scstep>
  <scstep>
   <time name="dav">    2.52    2.53</time>
   <time name="total">    2.84    2.85</time>
   <energy>
    <i name="e_fr_energy">    -99.61762036 </i>
    <i name="e_wo_entrp">    -99.57394094 </i>
    <i name="e_0_energy">    -99.59578065 </i>
   </energy>
  </scstep>
  <scstep>
   <time name="dav">    2.42    2.43</time>
   <time name="total">    2.72    2.72</time>
   <energy>
    <i name="e_fr_energy">    -99.61773547 </i>
    <i name="e_wo_entrp">    -99.57428344 </i>
    <i name="e_0_energy">    -99.59600946 </i>
   </energy>
  </scstep>
  <scstep>
   <time name="dav">    1.68    1.69</time>
   <time name="total">    2.01    2.01</time>
   <energy>
    <i name="e_fr_energy">    -99.61758128 </i>
    <i name="e_wo_entrp">    -99.57402426 </i>
    <i name="e_0_energy">    -99.59580277 </i>
   </energy>
  </scstep>
  <scstep>
   <time name="dav">    1.77    1.77</time>
   <time name="total">    1.91    1.91</time>
   <energy>
    <i name="alphaZ">    262.47990408 </i>
    <i name="ewald"> 139515.27451951 </i>
    <i name="hartreedc">-151804.79565960 </i>
    <i name="XCdc">     83.08177386 </i>
    <i name="pawpsdc">  14785.07528175 </i>
    <i name="pawaedc"> -14356.68917823 </i>
    <i name="eentropy">     -0.04373927 </i>
    <i name="bandstr">   -816.59464030 </i>
    <i name="atom">  12232.59423587 </i>
    <i name="e_fr_energy">    -99.61750233 </i>
    <i name="e_wo_entrp">    -99.57376306 </i>
    <i name="e_0_energy">    -99.59563270 </i>
   </energy>
  </scstep>
  <structure>
   <crystal>
    <varray name="basis" >
     <v>       5.63307200       0.00000000       0.21554300 </v>
     <v>       2.81241200       4.88076200       0.21554300 </v>
     <v>       0.00000000       0.00000000      36.85793800 </v>
    </varray>
    <i name="volume">   1013.36049145 </i>
    <varray name="rec_basis" >
     <v>       0.17752303      -0.10229302       0.00000000 </v>
     <v>       0.00000000       0.20488604       0.00000000 </v>
     <v>      -0.00103814      -0.00059996       0.02713120 </v>
    </varray>
   </crystal>
   <varray name="positions" >
    <v>       0.01562500       0.14062500       0.40625000 </v>
    <v>       0.01562500       0.64062500       0.40625000 </v>
    <v>       0.51562500       0.14062500       0.40625000 </v>
    <v>       0.51562500       0.64062500       0.40625000 </v>
    <v>       0.17187500       0.29687500       0.46875000 </v>
    <v>       0.17187500       0.79687500       0.46875000 </v>
    <v>       0.67187500       0.29687500       0.46875000 </v>
    <v>       0.67187500       0.79687500       0.46875000 </v>
    <v>       0.34279200       0.40917300       0.53212600 </v>
    <v>       0.34280300       0.90913800       0.53213200 </v>
    <v>       0.84276600       0.40926100       0.53214000 </v>
    <v>       0.84287500       0.90923400       0.53213200 </v>
    <v>       0.51315900       0.01054900       0.59867100 </v>
    <v>       0.51312600       0.51050900       0.59868400 </v>
    <v>       0.01312100       0.01049300       0.59868600 </v>
    <v>       0.01311400       0.51052300       0.59868100 </v>
    <v>       0.67075000       0.16813100       0.65299600 </v>
    <v>       0.66554300       0.16292400       0.68423600 </v>
   </varray>
  </structure>
  <varray name="forces" >
   <v>       0.06733454      -0.22451176      -0.39625477 </v>
   <v>       0.07652470      -0.15549096      -0.62600655 </v>
   <v>       0.09150068      -0.21352251      -0.38905296 </v>
   <v>       0.07596566      -0.13018242      -0.34777892 </v>
   <v>      -0.09570674      -0.03815963       0.61455853 </v>
   <v>      -0.07741663      -0.00839194       0.59449627 </v>
   <v>      -0.10396935      -0.02817039       0.92290976 </v>
   <v>      -0.09851030      -0.01346830       0.59538906 </v>
   <v>       0.04457480      -0.05785888       0.06574120 </v>
   <v>      -0.06023060      -0.27294800       0.74897346 </v>
   <v>      -0.06730909      -0.07794149       0.09491984 </v>
   <v>      -0.00156986      -0.19086700       0.06947513 </v>
   <v>       0.17603539       0.09240899       0.86496225 </v>
   <v>       0.01020912      -0.30913062       0.92931573 </v>
   <v>      -0.16674404       0.08675729       0.84414571 </v>
   <v>       0.00788425      -0.06418575       0.09791285 </v>
   <v>      -0.21286407      -1.67474348      -2.96028885 </v>
   <v>       0.33429154       3.28040685      -1.72341774 </v>
  </varray>
  <energy>
   <i name="e_fr_energy">    -99.61750233 </i>
   <i name="e_wo_entrp">    -99.57376306 </i>
   <i name="e_0_energy">    -99.59563270 </i>
  </energy>
  <time name="totalsc">  123.69  124.07</time>
 </calculation>
 <calculation>
  <scstep>
   <time name="dav">    2.40    2.40</time>
   <time name="total">    2.69    2.70</time>
   <energy>
    <i name="alphaZ">    262.47990408 </i>
    <i name="ewald"> 139495.42761339 </i>
    <i name="hartreedc">-151790.68969316 </i>
    <i name="XCdc">     82.85924795 </i>
    <i name="pawpsdc">  14784.70822925 </i>
    <i name="pawaedc"> -14356.32534474 </i>
    <i name="eentropy">     -0.04838440 </i>
    <i name="bandstr">   -810.48743565 </i>
    <i name="atom">  12232.59423587 </i>
    <i name="e_fr_energy">    -99.48162741 </i>
    <i name="e_wo_entrp">    -99.43324300 </i>
    <i name="e_0_energy">    -99.45743520 </i>
   </energy>
  </scstep>
  <scstep>
   <time name="dav">    2.49    2.52</time>
   <time name="total">    2.79    2.83</time>
   <energy>
    <i name="e_fr_energy">   -100.10814946 </i>
    <i name="e_wo_entrp">   -100.07322270 </i>
    <i name="e_0_energy">   -100.09068608 </i>
   </energy>
  </scstep>
  <scstep>
   <time name="dav">    2.84    2.85</time>
   <time name="total">    3.14    3.15</time>
   <energy>
    <i name="e_fr_energy">   -100.63882579 </i>
    <i name="e_wo_entrp">   -100.59843949 </i>
    <i name="e_0_energy">   -100.61863264 </i>
   </energy>
  </scstep>
  <scstep>
   <time name="dav">    3.01    3.03</time>
   <time name="total">    3.30    3.31</time>
   <energy>
    <i name="e_fr_energy">   -100.30385119 </i>
    <i name="e_wo_entrp">   -100.26202771 </i>
    <i name="e_0_energy">   -100.28293945 </i>
   </energy>
  </scstep>
  <scstep>
   <time name="dav">    2.84    2.84</time>
   <time name="total">    3.18    3.19</time>
   <energy>
    <i name="e_fr_energy">    -99.99057904 </i>
    <i name="e_wo_entrp">    -99.94442166 </i>
    <i name="e_0_energy">    -99.96750035 </i>
   </energy>
  </scstep>
  <scstep>
   <time name="dav">    2.72    2.73</time>
   <time name="total">    3.04    3.04</time>
   <energy>
    <i name="e_fr_energy">   -100.00638910 </i>
    <i name="e_wo_entrp">    -99.95372914 </i>
    <i name="e_0_energy">    -99.98005912 </i>
   </energy>
  </scstep>
  <scstep>
   <time name="dav">    2.80    2.81</time>
   <time name="total">    3.10    3.12</time>
   <energy>
    <i name="e_fr_energy">   -100.00496348 </i>
    <i name="e_wo_entrp">    -99.95923961 </i>
    <i name="e_0_energy">    -99.98210154 </i>
   </energy>
  </scstep>
  <scstep>
   <time name="dav">    2.61    2.61</time>
   <time name="total">    2.92    2.92</time>
   <energy>
    <i name="e_fr_energy">    -99.97309635 </i>
    <i name="e_wo_entrp">    -99.92924162 </i>
    <i name="e_0_energy">    -99.95116898 </i>
   </energy>
  </scstep>
  <scstep>
   <time name="dav">    2.56    2.57</time>
   <time name="total">    2.86    2.86</time>
   <energy>
    <i name="e_fr_energy">   -100.00956990 </i>
    <i name="e_wo_entrp">    -99.96319254 </i>
    <i name="e_0_energy">    -99.98638122 </i>
   </energy>
  </scstep>
  <scstep>
   <time name="dav">    2.61    2.64</time>
   <time name="total">    2.91    2.95</time>
   <energy>
    <i name="e_fr_energy">    -99.95301703 </i>
    <i name="e_wo_entrp">    -99.90856916 </i>
    <i name="e_0_energy">    -99.93079310 </i>
   </energy>
  </scstep>
  <scstep>
   <time name="dav">    2.64    2.65</time>
   <time name="total">    2.94    2.95</time>
   <energy>
    <i name="e_fr_energy">    -99.95336620 </i>
    <i name="e_wo_entrp">    -99.90625301 </i>
    <i name="e_0_energy">    -99.92980961 </i>
   </energy>
  </scstep>
  <scstep>
   <time name="dav">    2.59    2.59</time>
   <time name="total">    2.90    2.90</time>
   <energy>
    <i name="e_fr_energy">    -99.95011669 </i>
    <i name="e_wo_entrp">    -99.90367547 </i>
    <i name="e_0_energy">    -99.92689608 </i>
   </energy>
  </scstep>
  <scstep>
   <time name="dav">    2.60    2.61</time>
   <time name="total">    2.92    2.93</time>
   <energy>
    <i name="e_fr_energy">    -99.94774614 </i>
    <i name="e_wo_entrp">    -99.90223952 </i>
    <i name="e_0_energy">    -99.92499283 </i>
   </energy>
  </scstep>
  <scstep>
   <time name="dav">    2.57    2.64</time>
   <time name="total">    2.88    2.95</time>
   <energy>
    <i name="e_fr_energy">    -99.94802096 </i>
    <i name="e_wo_entrp">    -99.90294764 </i>
    <i name="e_0_energy">    -99.92548430 </i>
   </energy>
  </scstep>
  <scstep>
   <time name="dav">    2.33    2.38</time>
   <time name="total">    2.64    2.71</time>
   <energy>
    <i name="e_fr_energy">    -99.94362931 </i>
    <i name="e_wo_entrp">    -99.89831099 </i>
    <i name="e_0_energy">    -99.92097015 </i>
   </energy>
  </scstep>
  <scstep>
   <time name="dav">    2.17    2.18</time>
   <time name="total">    2.48    2.49</time>
   <energy>
    <i name="e_fr_energy">    -99.94330672 </i>
    <i name="e_wo_entrp">    -99.89802143 </i>
    <i name="e_0_energy">    -99.92066407 </i>
   </energy>
  </scstep>
  <scstep>
   <time name="dav">    1.66    1.66</time>
   <time name="total">    1.97    1.97</time>
   <energy>
    <i name="e_fr_energy">    -99.94286183 </i>
    <i name="e_wo_entrp">    -99.89767707 </i>
    <i name="e_0_energy">    -99.92026945 </i>
   </energy>
  </scstep>
  <scstep>
   <time name="dav">    1.76    1.77</time>
   <time name="total">    2.05    2.06</time>
   <energy>
    <i name="e_fr_energy">    -99.94229759 </i>
    <i name="e_wo_entrp">    -99.89737532 </i>
    <i name="e_0_energy">    -99.91983645 </i>
   </energy>
  </scstep>
  <scstep>
   <time name="dav">    1.75    1.76</time>
   <time name="total">    2.07    2.08</time>
   <energy>
    <i name="e_fr_energy">    -99.94145376 </i>
    <i name="e_wo_entrp">    -99.89649037 </i>
    <i name="e_0_energy">    -99.91897206 </i>
   </energy>
  </scstep>
  <scstep>
   <time name="dav">    1.86    1.87</time>
   <time name="total">    2.18    2.19</time>
   <energy>
    <i name="e_fr_energy">    -99.94097459 </i>
    <i name="e_wo_entrp">    -99.89593587 </i>
    <i name="e_0_energy">    -99.91845523 </i>
   </energy>
  </scstep>
  <scstep>
   <time name="dav">    1.54    1.56</time>
   <time name="total">    1.68    1.69</time>
   <energy>
    <i name="alphaZ">    262.47990408 </i>
    <i name="ewald"> 139495.42761339 </i>
    <i name="hartreedc">-151752.72518329 </i>
    <i name="XCdc">     82.64978779 </i>
    <i name="pawpsdc">  14574.97688128 </i>
    <i name="pawaedc"> -14146.65840059 </i>
    <i name="eentropy">     -0.04503628 </i>
    <i name="bandstr">   -848.64079601 </i>
    <i name="atom">  12232.59423587 </i>
    <i name="e_fr_energy">    -99.94099377 </i>
    <i name="e_wo_entrp">    -99.89595749 </i>
    <i name="e_0_energy">    -99.91847563 </i>
   </energy>
  </scstep>
  <structure>
   <crystal>
    <varray name="basis" >
     <v>       5.63307200       0.00000000       0.21554300 </v>
     <v>       2.81241200       4.88076200       0.21554300 </v>
     <v>       0.00000000       0.00000000      36.85793800 </v>
    </varray>
    <i name="volume">   1013.36049145 </i>
    <varray name="rec_basis" >
     <v>       0.17752303      -0.10229302       0.00000000 </v>
     <v>       0.00000000       0.20488604       0.00000000 </v>
     <v>      -0.00103814      -0.00059996       0.02713120 </v>
    </varray>
   </crystal>
   <varray name="positions" >
    <v>       0.01562500       0.14062500       0.40625000 </v>
    <v>       0.01562500       0.64062500       0.40625000 </v>
    <v>       0.51562500       0.14062500       0.40625000 </v>
    <v>       0.51562500       0.64062500       0.40625000 </v>
    <v>       0.17187500       0.29687500       0.46875000 </v>
    <v>       0.17187500       0.79687500       0.46875000 </v>
    <v>       0.67187500       0.29687500       0.46875000 </v>
    <v>       0.67187500       0.79687500       0.46875000 </v>
    <v>       0.34345927       0.40860111       0.53221149 </v>
    <v>       0.34363414       0.90644011       0.53312323 </v>
    <v>       0.84257419       0.40849061       0.53226987 </v>
    <v>       0.84380346       0.90734742       0.53222854 </v>
    <v>       0.51421057       0.01146239       0.59979164 </v>
    <v>       0.51473896       0.50745348       0.59990880 </v>
    <v>       0.01126484       0.01135053       0.59979673 </v>
    <v>       0.01349827       0.50988857       0.59881062 </v>
    <v>       0.67719166       0.15157742       0.64918047 </v>
    <v>       0.65221750       0.19534835       0.68186856 </v>
   </varray>
  </structure>
  <varray name="forces" >
   <v>       0.08244573       0.11095896      -0.71385416 </v>
   <v>       0.08850862       0.19625106      -0.99592232 </v>
   <v>       0.11253153       0.12407168      -0.71449865 </v>
   <v>       0.08946127       0.20473877      -0.65358778 </v>
   <v>      -0.07240381       0.32759131       0.29720866 </v>
   <v>      -0.04945256       0.31418432       0.30671194 </v>
   <v>      -0.08145995       0.32376726       0.59019747 </v>
   <v>      -0.08938532       0.31147558       0.30885285 </v>
   <v>      -0.03939317       0.26605531      -0.22848929 </v>
   <v>       0.05275341       0.01574262       0.39947745 </v>
   <v>      -0.00631593       0.22139858      -0.23641166 </v>
   <v>      -0.07641166       0.31429592      -0.24429794 </v>
   <v>       0.15032649       0.28986218       0.47450543 </v>
   <v>       0.05616369       0.14979848       0.08008912 </v>
   <v>      -0.06331148       0.31932551       0.39877017 </v>
   <v>       0.03825869       0.27429611      -0.19309349 </v>
   <v>      -0.42366490       0.59305690       2.39101128 </v>
   <v>       0.23134936      -4.35687056      -1.26666907 </v>
  </varray>
  <energy>
   <i name="e_fr_energy">    -99.94099377 </i>
   <i name="e_wo_entrp">    -99.89595749 </i>
   <i name="e_0_energy">    -99.91847563 </i>
  </energy>
  <time name="totalsc">   58.07   58.47</time>
 </calculation>
 <calculation>
  <scstep>
   <time name="dav">    2.41    2.42</time>
   <time name="total">    2.70    2.72</time>
   <energy>
    <i name="alphaZ">    262.47990408 </i>
    <i name="ewald"> 139502.68946612 </i>
    <i name="hartreedc">-151757.77044107 </i>
    <i name="XCdc">     82.72729743 </i>
    <i name="pawpsdc">  14574.98705648 </i>
    <i name="pawaedc"> -14146.66852904 </i>
    <i name="eentropy">     -0.04308957 </i>
    <i name="bandstr">   -850.92852981 </i>
    <i name="atom">  12232.59423587 </i>
    <i name="e_fr_energy">    -99.93262952 </i>
    <i name="e_wo_entrp">    -99.88953995 </i>
    <i name="e_0_energy">    -99.91108473 </i>
   </energy>
  </scstep>
  <scstep>
   <time name="dav">    2.55    2.55</time>
   <time name="total">    2.84    2.86</time>
   <energy>
    <i name="e_fr_energy">   -100.04203469 </i>
    <i name="e_wo_entrp">    -99.99182857 </i>
    <i name="e_0_energy">   -100.01693163 </i>
   </energy>
  </scstep>
  <scstep>
   <time name="dav">    2.84    2.84</time>
   <time name="total">    3.13    3.14</time>
   <energy>
    <i name="e_fr_energy">   -100.12514115 </i>
    <i name="e_wo_entrp">   -100.08812399 </i>
    <i name="e_0_energy">   -100.10663257 </i>
   </energy>
  </scstep>
  <scstep>
   <time name="dav">    2.68    2.69</time>
   <time name="total">    2.99    3.00</time>
   <energy>
    <i name="e_fr_energy">   -100.00894936 </i>
    <i name="e_wo_entrp">    -99.96963039 </i>
    <i name="e_0_energy">    -99.98928988 </i>
   </energy>
  </scstep>
  <scstep>
   <time name="dav">    2.74    2.75</time>
   <time name="total">    3.05    3.06</time>
   <energy>
    <i name="e_fr_energy">   -100.00027540 </i>
    <i name="e_wo_entrp">    -99.95064657 </i>
    <i name="e_0_energy">    -99.97546098 </i>
   </energy>
  </scstep>
  <scstep>
   <time name="dav">    2.63    2.64</time>
   <time name="total">    2.94    2.95</time>
   <energy>
    <i name="e_fr_energy">   -100.02338185 </i>
    <i name="e_wo_entrp">    -99.97843989 </i>
    <i name="e_0_energy">   -100.00091087 </i>
   </energy>
  </scstep>
  <scstep>
   <time name="dav">    2.55    2.55</time>
   <time name="total">    2.85    2.86</time>
   <energy>
    <i name="e_fr_energy">    -99.99786832 </i>
    <i name="e_wo_entrp">    -99.95116980 </i>
    <i name="e_0_energy">    -99.97451906 </i>
   </energy>
  </scstep>
  <scstep>
   <time name="dav">    2.63    2.64</time>
   <time name="total">    2.94    2.94</time>
   <energy>
    <i name="e_fr_energy">    -99.98126862 </i>
    <i name="e_wo_entrp">    -99.93928025 </i>
    <i name="e_0_energy">    -99.96027443 </i>
   </energy>
  </scstep>
  <scstep>
   <time name="dav">    2.52    2.53</time>
   <time name="total">    2.82    2.82</time>
   <energy>
    <i name="e_fr_energy">    -99.98096490 </i>
    <i name="e_wo_entrp">    -99.93877091 </i>
    <i name="e_0_energy">    -99.95986790 </i>
   </energy>
  </scstep>
  <scstep>
   <time name="dav">    2.48    2.49</time>
   <time name="total">    2.79    2.80</time>
   <energy>
    <i name="e_fr_energy">    -99.97989648 </i>
    <i name="e_wo_entrp">    -99.93722715 </i>
    <i name="e_0_energy">    -99.95856181 </i>
   </energy>
  </scstep>
  <scstep>
   <time name="dav">    2.77    2.77</time>
   <time name="total">    3.08    3.09</time>
   <energy>
    <i name="e_fr_energy">    -99.97769821 </i>
    <i name="e_wo_entrp">    -99.93253025 </i>
    <i name="e_0_energy">    -99.95511423 </i>
   </energy>
  </scstep>
  <scstep>
   <time name="dav">    2.45    2.45</time>
   <time name="total">    2.75    2.76</time>
   <energy>
    <i name="e_fr_energy">    -99.97757963 </i>
    <i name="e_wo_entrp">    -99.93392957 </i>
    <i name="e_0_energy">    -99.95575460 </i>
   </energy>
  </scstep>
  <scstep>
   <time name="dav">    2.18    2.19</time>
   <time name="total">    2.49    2.50</time>
   <energy>
    <i name="e_fr_energy">    -99.97813516 </i>
    <i name="e_wo_entrp">    -99.93470794 </i>
    <i name="e_0_energy">    -99.95642155 </i>
   </energy>
  </scstep>
  <scstep>
   <time name="dav">    1.77    1.77</time>
   <time name="total">    2.07    2.08</time>
   <energy>
    <i name="e_fr_energy">    -99.97755489 </i>
    <i name="e_wo_entrp">    -99.93368822 </i>
    <i name="e_0_energy">    -99.95562156 </i>
   </energy>
  </scstep>
  <scstep>
   <time name="dav">    1.71    1.71</time>
   <time name="total">    2.01    2.03</time>
   <energy>
    <i name="e_fr_energy">    -99.97730785 </i>
    <i name="e_wo_entrp">    -99.93315987 </i>
    <i name="e_0_energy">    -99.95523386 </i>
   </energy>
  </scstep>
  <scstep>
   <time name="dav">    1.80    1.81</time>
   <time name="total">    2.11    2.11</time>
   <energy>
    <i name="e_fr_energy">    -99.97716946 </i>
    <i name="e_wo_entrp">    -99.93260519 </i>
    <i name="e_0_energy">    -99.95488733 </i>
   </energy>
  </scstep>
  <scstep>
   <time name="dav">    1.65    1.66</time>
   <time name="total">    1.79    1.79</time>
   <energy>
    <i name="alphaZ">    262.47990408 </i>
    <i name="ewald"> 139502.68946612 </i>
    <i name="hartreedc">-151772.49884929 </i>
    <i name="XCdc">     82.81627489 </i>
    <i name="pawpsdc">  14683.96143908 </i>
    <i name="pawaedc"> -14255.59239612 </i>
    <i name="eentropy">     -0.04457753 </i>
    <i name="bandstr">   -836.38268690 </i>
    <i name="atom">  12232.59423587 </i>
    <i name="e_fr_energy">    -99.97718979 </i>
    <i name="e_wo_entrp">    -99.93261226 </i>
    <i name="e_0_energy">    -99.95490102 </i>
   </energy>
  </scstep>
  <structure>
   <crystal>
    <varray name="basis" >
     <v>       5.63307200       0.00000000       0.21554300 </v>
     <v>       2.81241200       4.88076200       0.21554300 </v>
     <v>       0.00000000       0.00000000      36.85793800 </v>
    </varray>
    <i name="volume">   1013.36049145 </i>
    <varray name="rec_basis" >
     <v>       0.17752303      -0.10229302       0.00000000 </v>
     <v>       0.00000000       0.20488604       0.00000000 </v>
     <v>      -0.00103814      -0.00059996       0.02713120 </v>
    </varray>
   </crystal>
   <varray name="positions" >
    <v>       0.01562500       0.14062500       0.40625000 </v>
    <v>       0.01562500       0.64062500       0.40625000 </v>
    <v>       0.51562500       0.14062500       0.40625000 </v>
    <v>       0.51562500       0.64062500       0.40625000 </v>
    <v>       0.17187500       0.29687500       0.46875000 </v>
    <v>       0.17187500       0.79687500       0.46875000 </v>
    <v>       0.67187500       0.29687500       0.46875000 </v>
    <v>       0.67187500       0.79687500       0.46875000 </v>
    <v>       0.34322882       0.40879862       0.53218197 </v>
    <v>       0.34334710       0.90737185       0.53278090 </v>
    <v>       0.84264043       0.40875667       0.53222502 </v>
    <v>       0.84348281       0.90799897       0.53219520 </v>
    <v>       0.51384740       0.01114694       0.59940462 </v>
    <v>       0.51418191       0.50850873       0.59948580 </v>
    <v>       0.01190588       0.01105437       0.59941313 </v>
    <v>       0.01336556       0.51010768       0.59876585 </v>
    <v>       0.67496698       0.15729435       0.65049820 </v>
    <v>       0.65681958       0.18415031       0.68268618 </v>
   </varray>
  </structure>
  <varray name="forces" >
   <v>       0.02196559      -0.40657006      -0.50573551 </v>
   <v>       0.02975919      -0.32479590      -0.77258933 </v>
   <v>       0.05093993      -0.39410451      -0.50426792 </v>
   <v>       0.02961857      -0.31152283      -0.45322618 </v>
   <v>      -0.13522354      -0.19941824       0.50029143 </v>
   <v>      -0.10996413      -0.20135652       0.50221194 </v>
   <v>      -0.14470900      -0.19763013       0.80686297 </v>
   <v>      -0.15087678      -0.20486524       0.50434123 </v>
   <v>      -0.06412852      -0.24530325      -0.03097012 </v>
   <v>      -0.08826945      -0.49837998       0.60283851 </v>
   <v>      -0.08290250      -0.27625291      -0.02870182 </v>
   <v>      -0.10421314      -0.25033049      -0.04927610 </v>
   <v>       0.14337938      -0.21606596       0.70332854 </v>
   <v>      -0.02406043      -0.46907304       0.43445773 </v>
   <v>      -0.16139690      -0.21037925       0.61285504 </v>
   <v>      -0.02743317      -0.24222551      -0.00436517 </v>
   <v>       0.25679936       2.33875884       0.73585750 </v>
   <v>       0.56071554       2.30951498      -3.05391274 </v>
  </varray>
  <energy>
   <i name="e_fr_energy">    -99.97718979 </i>
   <i name="e_wo_entrp">    -99.93261226 </i>
   <i name="e_0_energy">    -99.95490102 </i>
  </energy>
  <time name="totalsc">   46.80   46.96</time>
 </calculation>
 <calculation>
  <scstep>
   <time name="dav">    2.39    2.40</time>
   <time name="total">    2.70    2.72</time>
   <energy>
    <i name="alphaZ">    262.47990408 </i>
    <i name="ewald"> 139500.34098306 </i>
    <i name="hartreedc">-151770.94092709 </i>
    <i name="XCdc">     82.79109141 </i>
    <i name="pawpsdc">  14683.98010734 </i>
    <i name="pawaedc"> -14255.61025799 </i>
    <i name="eentropy">     -0.04522294 </i>
    <i name="bandstr">   -835.62704868 </i>
    <i name="atom">  12232.59423587 </i>
    <i name="e_fr_energy">   -100.03713494 </i>
    <i name="e_wo_entrp">    -99.99191200 </i>
    <i name="e_0_energy">   -100.01452347 </i>
   </energy>
  </scstep>
  <scstep>
   <time name="dav">    2.48    2.51</time>
   <time name="total">    2.79    2.82</time>
   <energy>
    <i name="e_fr_energy">   -100.04223636 </i>
    <i name="e_wo_entrp">    -99.99820361 </i>
    <i name="e_0_energy">   -100.02021999 </i>
   </energy>
  </scstep>
  <scstep>
   <time name="dav">    2.80    2.84</time>
   <time name="total">    3.10    3.14</time>
   <energy>
    <i name="e_fr_energy">   -100.06251601 </i>
    <i name="e_wo_entrp">   -100.01291816 </i>
    <i name="e_0_energy">   -100.03771708 </i>
   </energy>
  </scstep>
  <scstep>
   <time name="dav">    3.08    3.08</time>
   <time name="total">    3.37    3.38</time>
   <energy>
    <i name="e_fr_energy">   -100.04812473 </i>
    <i name="e_wo_entrp">   -100.00576040 </i>
    <i name="e_0_energy">   -100.02694257 </i>
   </energy>
  </scstep>
  <scstep>
   <time name="dav">    2.67    2.68</time>
   <time name="total">    2.98    2.99</time>
   <energy>
    <i name="e_fr_energy">   -100.04131684 </i>
    <i name="e_wo_entrp">    -99.99614102 </i>
    <i name="e_0_energy">   -100.01872893 </i>
   </energy>
  </scstep>
  <scstep>
   <time name="dav">    3.15    3.16</time>
   <time name="total">    3.46    3.48</time>
   <energy>
    <i name="e_fr_energy">   -100.06200240 </i>
    <i name="e_wo_entrp">   -100.01324234 </i>
    <i name="e_0_energy">   -100.03762237 </i>
   </energy>
  </scstep>
  <scstep>
   <time name="dav">    3.11    3.15</time>
   <time name="total">    3.42    3.46</time>
   <energy>
    <i name="e_fr_energy">   -100.04255351 </i>
    <i name="e_wo_entrp">    -99.99980087 </i>
    <i name="e_0_energy">   -100.02117719 </i>
   </energy>
  </scstep>
  <scstep>
   <time name="dav">    2.63    2.64</time>
   <time name="total">    2.95    2.95</time>
   <energy>
    <i name="e_fr_energy">   -100.04258257 </i>
    <i name="e_wo_entrp">    -99.99894417 </i>
    <i name="e_0_energy">   -100.02076337 </i>
   </energy>
  </scstep>
  <scstep>
   <time name="dav">    2.37    2.38</time>
   <time name="total">    2.68    2.69</time>
   <energy>
    <i name="e_fr_energy">   -100.04124263 </i>
    <i name="e_wo_entrp">    -99.99641941 </i>
    <i name="e_0_energy">   -100.01883102 </i>
   </energy>
  </scstep>
  <scstep>
   <time name="dav">    1.73    1.76</time>
   <time name="total">    1.87    1.90</time>
   <energy>
    <i name="alphaZ">    262.47990408 </i>
    <i name="ewald"> 139500.34098306 </i>
    <i name="hartreedc">-151766.06526650 </i>
    <i name="XCdc">     82.75892041 </i>
    <i name="pawpsdc">  14656.52831229 </i>
    <i name="pawaedc"> -14228.14579226 </i>
    <i name="eentropy">     -0.04457481 </i>
    <i name="bandstr">   -840.48800691 </i>
    <i name="atom">  12232.59423587 </i>
    <i name="e_fr_energy">   -100.04128477 </i>
    <i name="e_wo_entrp">    -99.99670996 </i>
    <i name="e_0_energy">   -100.01899736 </i>
   </energy>
  </scstep>
  <structure>
   <crystal>
    <varray name="basis" >
     <v>       5.63307200       0.00000000       0.21554300 </v>
     <v>       2.81241200       4.88076200       0.21554300 </v>
     <v>       0.00000000       0.00000000      36.85793800 </v>
    </varray>
    <i name="volume">   1013.36049145 </i>
    <varray name="rec_basis" >
     <v>       0.17752303      -0.10229302       0.00000000 </v>
     <v>       0.00000000       0.20488604       0.00000000 </v>
     <v>      -0.00103814      -0.00059996       0.02713120 </v>
    </varray>
   </crystal>
   <varray name="positions" >
    <v>       0.01562500       0.14062500       0.40625000 </v>
    <v>       0.01562500       0.64062500       0.40625000 </v>
    <v>       0.51562500       0.14062500       0.40625000 </v>
    <v>       0.51562500       0.64062500       0.40625000 </v>
    <v>       0.17187500       0.29687500       0.46875000 </v>
    <v>       0.17187500       0.79687500       0.46875000 </v>
    <v>       0.67187500       0.29687500       0.46875000 </v>
    <v>       0.67187500       0.79687500       0.46875000 </v>
    <v>       0.34330418       0.40873403       0.53219162 </v>
    <v>       0.34344097       0.90706716       0.53289285 </v>
    <v>       0.84261877       0.40866966       0.53223968 </v>
    <v>       0.84358767       0.90778591       0.53220610 </v>
    <v>       0.51396616       0.01125010       0.59953118 </v>
    <v>       0.51436407       0.50816365       0.59962413 </v>
    <v>       0.01169625       0.01115122       0.59953857 </v>
    <v>       0.01340896       0.51003603       0.59878049 </v>
    <v>       0.67569447       0.15542485       0.65006728 </v>
    <v>       0.65531465       0.18781219       0.68241881 </v>
   </varray>
  </structure>
  <varray name="forces" >
   <v>       0.01006602      -0.47524625      -0.55889951 </v>
   <v>       0.01735922      -0.39080391      -0.83157198 </v>
   <v>       0.03899139      -0.46257150      -0.55814779 </v>
   <v>       0.01737372      -0.37938178      -0.50375497 </v>
   <v>      -0.14663581      -0.26404854       0.45077226 </v>
   <v>      -0.12140244      -0.26959256       0.45501458 </v>
   <v>      -0.15564918      -0.26288971       0.75334213 </v>
   <v>      -0.16318107      -0.27299237       0.45741225 </v>
   <v>      -0.08811384      -0.31342394      -0.07889624 </v>
   <v>      -0.07316242      -0.57015524       0.55745154 </v>
   <v>      -0.09002841      -0.34898413      -0.08040445 </v>
   <v>      -0.12727299      -0.29868183      -0.09790810 </v>
   <v>       0.13064763      -0.27085030       0.69586941 </v>
   <v>      -0.03868360      -0.50579851       0.33135779 </v>
   <v>      -0.16355735      -0.26907251       0.56632096 </v>
   <v>      -0.03705593      -0.31018007      -0.04981687 </v>
   <v>       0.50358559       2.05445211       1.56431175 </v>
   <v>       0.48671946       3.61022103      -3.07245276 </v>
  </varray>
  <energy>
   <i name="e_fr_energy">   -100.04128477 </i>
   <i name="e_wo_entrp">    -99.99670996 </i>
   <i name="e_0_energy">   -100.01899736 </i>
  </energy>
  <time name="totalsc">   30.74   30.97</time>
 </calculation>
 <calculation>
  <scstep>
   <time name="dav">    2.44    2.45</time>
   <time name="total">    2.75    2.77</time>
   <energy>
    <i name="alphaZ">    262.47990408 </i>
    <i name="ewald"> 139497.89456510 </i>
    <i name="hartreedc">-151764.46643217 </i>
    <i name="XCdc">     82.73360111 </i>
    <i name="pawpsdc">  14656.32878124 </i>
    <i name="pawaedc"> -14227.94601732 </i>
    <i name="eentropy">     -0.04533857 </i>
    <i name="bandstr">   -839.59412015 </i>
    <i name="atom">  12232.59423587 </i>
    <i name="e_fr_energy">   -100.02082082 </i>
    <i name="e_wo_entrp">    -99.97548225 </i>
    <i name="e_0_energy">    -99.99815153 </i>
   </energy>
  </scstep>
  <scstep>
   <time name="dav">    2.51    2.51</time>
   <time name="total">    2.82    2.82</time>
   <energy>
    <i name="e_fr_energy">   -100.02824704 </i>
    <i name="e_wo_entrp">    -99.98276824 </i>
    <i name="e_0_energy">   -100.00550764 </i>
   </energy>
  </scstep>
  <scstep>
   <time name="dav">    2.78    2.78</time>
   <time name="total">    3.08    3.08</time>
   <energy>
    <i name="e_fr_energy">   -100.04150185 </i>
    <i name="e_wo_entrp">   -100.00141107 </i>
    <i name="e_0_energy">   -100.02145646 </i>
   </energy>
  </scstep>
  <scstep>
   <time name="dav">    2.80    2.81</time>
   <time name="total">    3.11    3.12</time>
   <energy>
    <i name="e_fr_energy">   -100.03022216 </i>
    <i name="e_wo_entrp">    -99.98293169 </i>
    <i name="e_0_energy">   -100.00657693 </i>
   </energy>
  </scstep>
  <scstep>
   <time name="dav">    2.75    2.76</time>
   <time name="total">    3.06    3.08</time>
   <energy>
    <i name="e_fr_energy">   -100.02587332 </i>
    <i name="e_wo_entrp">    -99.98129645 </i>
    <i name="e_0_energy">   -100.00358489 </i>
   </energy>
  </scstep>
  <scstep>
   <time name="dav">    2.91    2.92</time>
   <time name="total">    3.21    3.22</time>
   <energy>
    <i name="e_fr_energy">   -100.03090659 </i>
    <i name="e_wo_entrp">    -99.98354452 </i>
    <i name="e_0_energy">   -100.00722556 </i>
   </energy>
  </scstep>
  <scstep>
   <time name="dav">    3.03    3.04</time>
   <time name="total">    3.33    3.34</time>
   <energy>
    <i name="e_fr_energy">   -100.02838844 </i>
    <i name="e_wo_entrp">    -99.98564994 </i>
    <i name="e_0_energy">   -100.00701919 </i>
   </energy>
  </scstep>
  <scstep>
   <time name="dav">    2.66    2.67</time>
   <time name="total">    2.96    2.98</time>
   <energy>
    <i name="e_fr_energy">   -100.02575570 </i>
    <i name="e_wo_entrp">    -99.98086299 </i>
    <i name="e_0_energy">   -100.00330935 </i>
   </energy>
  </scstep>
  <scstep>
   <time name="dav">    1.87    1.88</time>
   <time name="total">    2.01    2.02</time>
   <energy>
    <i name="alphaZ">    262.47990408 </i>
    <i name="ewald"> 139497.89456510 </i>
    <i name="hartreedc">-151759.37535723 </i>
    <i name="XCdc">     82.70292263 </i>
    <i name="pawpsdc">  14629.78222002 </i>
    <i name="pawaedc"> -14201.41156688 </i>
    <i name="eentropy">     -0.04525341 </i>
    <i name="bandstr">   -844.64742368 </i>
    <i name="atom">  12232.59423587 </i>
    <i name="e_fr_energy">   -100.02575351 </i>
    <i name="e_wo_entrp">    -99.98050009 </i>
    <i name="e_0_energy">   -100.00312680 </i>
   </energy>
  </scstep>
  <structure>
   <crystal>
    <varray name="basis" >
     <v>       5.63307200       0.00000000       0.21554300 </v>
     <v>       2.81241200       4.88076200       0.21554300 </v>
     <v>       0.00000000       0.00000000      36.85793800 </v>
    </varray>
    <i name="volume">   1013.36049145 </i>
    <varray name="rec_basis" >
     <v>       0.17752303      -0.10229302       0.00000000 </v>
     <v>       0.00000000       0.20488604       0.00000000 </v>
     <v>      -0.00103814      -0.00059996       0.02713120 </v>
    </varray>
   </crystal>
   <varray name="positions" >
    <v>       0.01562500       0.14062500       0.40625000 </v>
    <v>       0.01562500       0.64062500       0.40625000 </v>
    <v>       0.51562500       0.14062500       0.40625000 </v>
    <v>       0.51562500       0.64062500       0.40625000 </v>
    <v>       0.17187500       0.29687500       0.46875000 </v>
    <v>       0.17187500       0.79687500       0.46875000 </v>
    <v>       0.67187500       0.29687500       0.46875000 </v>
    <v>       0.67187500       0.79687500       0.46875000 </v>
    <v>       0.34338173       0.40866757       0.53220155 </v>
    <v>       0.34353755       0.90675364       0.53300804 </v>
    <v>       0.84259648       0.40858014       0.53225477 </v>
    <v>       0.84369556       0.90756667       0.53221732 </v>
    <v>       0.51408837       0.01135625       0.59966141 </v>
    <v>       0.51455151       0.50780856       0.59976646 </v>
    <v>       0.01148054       0.01125088       0.59966765 </v>
    <v>       0.01345361       0.50996230       0.59879556 </v>
    <v>       0.67644307       0.15350114       0.64962388 </v>
    <v>       0.65376607       0.19158027       0.68214369 </v>
   </varray>
  </structure>
  <varray name="forces" >
   <v>       0.07935395       0.02907348      -0.65183980 </v>
   <v>       0.08606177       0.11181727      -0.93054714 </v>
   <v>       0.10900663       0.04195426      -0.65204499 </v>
   <v>       0.08657298       0.12157502      -0.59594108 </v>
   <v>      -0.07596204       0.24155277       0.36249273 </v>
   <v>      -0.05155516       0.23125417       0.36813904 </v>
   <v>      -0.08554808       0.24005479       0.66536813 </v>
   <v>      -0.09362348       0.22834059       0.37098262 </v>
   <v>      -0.02967810       0.18592399      -0.16360366 </v>
   <v>       0.02871852      -0.06838591       0.46890986 </v>
   <v>      -0.01704029       0.14436905      -0.16754362 </v>
   <v>      -0.06914923       0.22354337      -0.18324606 </v>
   <v>       0.18252104       0.22898353       0.59548722 </v>
   <v>       0.04151043       0.03831000       0.18907766 </v>
   <v>      -0.08139798       0.23828627       0.47879454 </v>
   <v>       0.03307054       0.19135131      -0.14579230 </v>
   <v>       0.36615241       1.42756293       1.48551963 </v>
   <v>      -0.50901392      -3.85556692      -1.49421278 </v>
  </varray>
  <energy>
   <i name="e_fr_energy">   -100.02575351 </i>
   <i name="e_wo_entrp">    -99.98050009 </i>
   <i name="e_0_energy">   -100.00312680 </i>
  </energy>
  <time name="totalsc">   27.79   27.94</time>
 </calculation>
 <calculation>
  <scstep>
   <time name="dav">    2.39    2.43</time>
   <time name="total">    2.70    2.75</time>
   <energy>
    <i name="alphaZ">    262.47990408 </i>
    <i name="ewald"> 139499.31787359 </i>
    <i name="hartreedc">-151760.52458905 </i>
    <i name="XCdc">     82.71984685 </i>
    <i name="pawpsdc">  14629.71507218 </i>
    <i name="pawaedc"> -14201.34362108 </i>
    <i name="eentropy">     -0.04426333 </i>
    <i name="bandstr">   -844.97033361 </i>
    <i name="atom">  12232.59423587 </i>
    <i name="e_fr_energy">   -100.05587451 </i>
    <i name="e_wo_entrp">   -100.01161118 </i>
    <i name="e_0_energy">   -100.03374285 </i>
   </energy>
  </scstep>
  <scstep>
   <time name="dav">    3.98    4.08</time>
   <time name="total">    4.29    4.38</time>
   <energy>
    <i name="e_fr_energy">   -100.08069069 </i>
    <i name="e_wo_entrp">   -100.03150599 </i>
    <i name="e_0_energy">   -100.05609834 </i>
   </energy>
  </scstep>
  <scstep>
   <time name="dav">    2.70    2.72</time>
   <time name="total">    2.97    2.99</time>
   <energy>
    <i name="e_fr_energy">   -100.05833175 </i>
    <i name="e_wo_entrp">   -100.01504880 </i>
    <i name="e_0_energy">   -100.03669028 </i>
   </energy>
  </scstep>
  <scstep>
   <time name="dav">    2.79    2.79</time>
   <time name="total">    3.09    3.10</time>
   <energy>
    <i name="e_fr_energy">   -100.05811105 </i>
    <i name="e_wo_entrp">   -100.01406849 </i>
    <i name="e_0_energy">   -100.03608977 </i>
   </energy>
  </scstep>
  <scstep>
   <time name="dav">    2.73    2.74</time>
   <time name="total">    3.03    3.04</time>
   <energy>
    <i name="e_fr_energy">   -100.05868077 </i>
    <i name="e_wo_entrp">   -100.01274575 </i>
    <i name="e_0_energy">   -100.03571326 </i>
   </energy>
  </scstep>
  <scstep>
   <time name="dav">    2.50    2.51</time>
   <time name="total">    2.80    2.82</time>
   <energy>
    <i name="e_fr_energy">   -100.06086316 </i>
    <i name="e_wo_entrp">   -100.01424793 </i>
    <i name="e_0_energy">   -100.03755555 </i>
   </energy>
  </scstep>
  <scstep>
   <time name="dav">    2.63    2.63</time>
   <time name="total">    2.94    2.94</time>
   <energy>
    <i name="e_fr_energy">   -100.05744827 </i>
    <i name="e_wo_entrp">   -100.01295656 </i>
    <i name="e_0_energy">   -100.03520241 </i>
   </energy>
  </scstep>
  <scstep>
   <time name="dav">    2.33    2.34</time>
   <time name="total">    2.46    2.47</time>
   <energy>
    <i name="alphaZ">    262.47990408 </i>
    <i name="ewald"> 139499.31787359 </i>
    <i name="hartreedc">-151763.85653445 </i>
    <i name="XCdc">     82.74658414 </i>
    <i name="pawpsdc">  14647.75128053 </i>
    <i name="pawaedc"> -14219.36505410 </i>
    <i name="eentropy">     -0.04520663 </i>
    <i name="bandstr">   -841.68053726 </i>
    <i name="atom">  12232.59423587 </i>
    <i name="e_fr_energy">   -100.05745423 </i>
    <i name="e_wo_entrp">   -100.01224760 </i>
    <i name="e_0_energy">   -100.03485092 </i>
   </energy>
  </scstep>
  <structure>
   <crystal>
    <varray name="basis" >
     <v>       5.63307200       0.00000000       0.21554300 </v>
     <v>       2.81241200       4.88076200       0.21554300 </v>
     <v>       0.00000000       0.00000000      36.85793800 </v>
    </varray>
    <i name="volume">   1013.36049145 </i>
    <varray name="rec_basis" >
     <v>       0.17752303      -0.10229302       0.00000000 </v>
     <v>       0.00000000       0.20488604       0.00000000 </v>
     <v>      -0.00103814      -0.00059996       0.02713120 </v>
    </varray>
   </crystal>
   <varray name="positions" >
    <v>       0.01562500       0.14062500       0.40625000 </v>
    <v>       0.01562500       0.64062500       0.40625000 </v>
    <v>       0.51562500       0.14062500       0.40625000 </v>
    <v>       0.51562500       0.64062500       0.40625000 </v>
    <v>       0.17187500       0.29687500       0.46875000 </v>
    <v>       0.17187500       0.79687500       0.46875000 </v>
    <v>       0.67187500       0.29687500       0.46875000 </v>
    <v>       0.67187500       0.79687500       0.46875000 </v>
    <v>       0.34333671       0.40870615       0.53219579 </v>
    <v>       0.34348148       0.90693565       0.53294117 </v>
    <v>       0.84260942       0.40863211       0.53224601 </v>
    <v>       0.84363293       0.90769394       0.53221081 </v>
    <v>       0.51401743       0.01129463       0.59958581 </v>
    <v>       0.51444270       0.50801470       0.59968384 </v>
    <v>       0.01160576       0.01119302       0.59959271 </v>
    <v>       0.01342769       0.51000510       0.59878681 </v>
    <v>       0.67600850       0.15461788       0.64988128 </v>
    <v>       0.65466504       0.18939285       0.68230340 </v>
   </varray>
  </structure>
  <varray name="forces" >
   <v>       0.11844874      -0.26774325      -0.52371606 </v>
   <v>       0.12514086      -0.18614821      -0.79789762 </v>
   <v>       0.14720852      -0.25476337      -0.52372603 </v>
   <v>       0.12523417      -0.17447330      -0.46973023 </v>
   <v>      -0.03785276      -0.05758479       0.48853231 </v>
   <v>      -0.01281819      -0.06555862       0.49322525 </v>
   <v>      -0.04743389      -0.05801924       0.79344951 </v>
   <v>      -0.05523831      -0.06862057       0.49582697 </v>
   <v>       0.01604085      -0.11093570      -0.03340716 </v>
   <v>       0.04670733      -0.36731870       0.60537779 </v>
   <v>       0.01903446      -0.14733665      -0.03500379 </v>
   <v>      -0.02262083      -0.08380142      -0.05385573 </v>
   <v>       0.23225045      -0.06359213       0.74524281 </v>
   <v>       0.07099716      -0.28400903       0.35774838 </v>
   <v>      -0.05119092      -0.05937368       0.61432991 </v>
   <v>       0.07044140      -0.10616831      -0.01286086 </v>
   <v>       0.58395482       2.29952859       2.13339827 </v>
   <v>      -1.32830386       0.05591839      -4.27693371 </v>
  </varray>
  <energy>
   <i name="e_fr_energy">   -100.05745423 </i>
   <i name="e_wo_entrp">   -100.01224760 </i>
   <i name="e_0_energy">   -100.03485092 </i>
  </energy>
  <time name="totalsc">   25.73   25.95</time>
 </calculation>
 <calculation>
  <scstep>
   <time name="dav">    2.40    2.42</time>
   <time name="total">    2.69    2.71</time>
   <energy>
    <i name="alphaZ">    262.47990408 </i>
    <i name="ewald"> 139537.96906619 </i>
    <i name="hartreedc">-151793.52386030 </i>
    <i name="XCdc">     83.08550081 </i>
    <i name="pawpsdc">  14647.93561946 </i>
    <i name="pawaedc"> -14219.54927291 </i>
    <i name="eentropy">     -0.04362035 </i>
    <i name="bandstr">   -850.49288361 </i>
    <i name="atom">  12232.59423587 </i>
    <i name="e_fr_energy">    -99.54531077 </i>
    <i name="e_wo_entrp">    -99.50169042 </i>
    <i name="e_0_energy">    -99.52350059 </i>
   </energy>
  </scstep>
  <scstep>
   <time name="dav">    2.45    2.45</time>
   <time name="total">    2.75    2.76</time>
   <energy>
    <i name="e_fr_energy">    -99.89429532 </i>
    <i name="e_wo_entrp">    -99.85397202 </i>
    <i name="e_0_energy">    -99.87413367 </i>
   </energy>
  </scstep>
  <scstep>
   <time name="dav">    3.12    3.13</time>
   <time name="total">    3.43    3.44</time>
   <energy>
    <i name="e_fr_energy">   -100.34100501 </i>
    <i name="e_wo_entrp">   -100.30572724 </i>
    <i name="e_0_energy">   -100.32336613 </i>
   </energy>
  </scstep>
  <scstep>
   <time name="dav">    3.20    3.21</time>
   <time name="total">    3.51    3.52</time>
   <energy>
    <i name="e_fr_energy">    -99.88919891 </i>
    <i name="e_wo_entrp">    -99.85437897 </i>
    <i name="e_0_energy">    -99.87178894 </i>
   </energy>
  </scstep>
  <scstep>
   <time name="dav">    2.65    2.66</time>
   <time name="total">    2.94    2.95</time>
   <energy>
    <i name="e_fr_energy">    -99.91650775 </i>
    <i name="e_wo_entrp">    -99.86396535 </i>
    <i name="e_0_energy">    -99.89023655 </i>
   </energy>
  </scstep>
  <scstep>
   <time name="dav">    2.70    2.71</time>
   <time name="total">    3.00    3.01</time>
   <energy>
    <i name="e_fr_energy">    -99.88467377 </i>
    <i name="e_wo_entrp">    -99.83466937 </i>
    <i name="e_0_energy">    -99.85967157 </i>
   </energy>
  </scstep>
  <scstep>
   <time name="dav">    2.55    2.56</time>
   <time name="total">    2.85    2.86</time>
   <energy>
    <i name="e_fr_energy">    -99.84604377 </i>
    <i name="e_wo_entrp">    -99.80067528 </i>
    <i name="e_0_energy">    -99.82335952 </i>
   </energy>
  </scstep>
  <scstep>
   <time name="dav">    2.78    2.78</time>
   <time name="total">    3.09    3.10</time>
   <energy>
    <i name="e_fr_energy">    -99.85260708 </i>
    <i name="e_wo_entrp">    -99.81311061 </i>
    <i name="e_0_energy">    -99.83285885 </i>
   </energy>
  </scstep>
  <scstep>
   <time name="dav">    2.56    2.57</time>
   <time name="total">    2.87    2.88</time>
   <energy>
    <i name="e_fr_energy">    -99.83919728 </i>
    <i name="e_wo_entrp">    -99.79596207 </i>
    <i name="e_0_energy">    -99.81757967 </i>
   </energy>
  </scstep>
  <scstep>
   <time name="dav">    3.04    3.05</time>
   <time name="total">    3.35    3.36</time>
   <energy>
    <i name="e_fr_energy">    -99.84468819 </i>
    <i name="e_wo_entrp">    -99.79749024 </i>
    <i name="e_0_energy">    -99.82108921 </i>
   </energy>
  </scstep>
  <scstep>
   <time name="dav">    2.55    2.59</time>
   <time name="total">    2.86    2.90</time>
   <energy>
    <i name="e_fr_energy">    -99.83912423 </i>
    <i name="e_wo_entrp">    -99.79313806 </i>
    <i name="e_0_energy">    -99.81613115 </i>
   </energy>
  </scstep>
  <scstep>
   <time name="dav">    2.78    2.79</time>
   <time name="total">    3.11    3.11</time>
   <energy>
    <i name="e_fr_energy">    -99.83313015 </i>
    <i name="e_wo_entrp">    -99.78956676 </i>
    <i name="e_0_energy">    -99.81134846 </i>
   </energy>
  </scstep>
  <scstep>
[...]
        <r>  0.0051  0.0004  0.0017  0.0008  0.0472  0.0001  0.0196  0.0003  0.0164 </r>
        <r>  0.0322  0.0021  0.0000  0.0005  0.0422  0.0003  0.0013  0.0008  0.0123 </r>
        <r>  0.0060  0.0122  0.0001  0.0018  0.0072  0.0004  0.0008  0.0039  0.0018 </r>
        <r>  0.0039  0.0005  0.0000  0.0004  0.0067  0.0011  0.0041  0.0046  0.0023 </r>
        <r>  0.0032  0.0009  0.0016  0.0003  0.0024  0.0026  0.0012  0.0010  0.0005 </r>
        <r>  0.0006  0.0007  0.0014  0.0003  0.0035  0.0014  0.0005  0.0001  0.0021 </r>
        <r>  0.0031  0.0005  0.0017  0.0003  0.0101  0.0002  0.0074  0.0017  0.0031 </r>
        <r>  0.0002  0.0014  0.0002  0.0004  0.0000  0.0000  0.0000  0.0000  0.0000 </r>
        <r>  0.0000  0.0019  0.0002  0.0006  0.0000  0.0000  0.0000  0.0000  0.0000 </r>
       </set>
       <set comment="band 95">
        <r>  0.0163  0.0006  0.0008  0.0001  0.0460  0.0005  0.0101  0.0002  0.0152 </r>
        <r>  0.0005  0.0100  0.0003  0.0037  0.0028  0.0019  0.0010  0.0005  0.0011 </r>
        <r>  0.0016  0.0103  0.0000  0.0035  0.0024  0.0016  0.0004  0.0009  0.0010 </r>
        <r>  0.0175  0.0008  0.0005  0.0000  0.0467  0.0000  0.0099  0.0001  0.0154 </r>
        <r>  0.0187  0.0009  0.0003  0.0004  0.0469  0.0002  0.0077  0.0003  0.0155 </r>
        <r>  0.0028  0.0123  0.0000  0.0046  0.0031  0.0003  0.0002  0.0001  0.0017 </r>
        <r>  0.0010  0.0131  0.0000  0.0038  0.0028  0.0003  0.0013  0.0001  0.0019 </r>
        <r>  0.0241  0.0006  0.0004  0.0007  0.0457  0.0001  0.0049  0.0000  0.0156 </r>
        <r>  0.0014  0.0000  0.0031  0.0001  0.0014  0.0001  0.0000  0.0000  0.0004 </r>
        <r>  0.0001  0.0004  0.0000  0.0000  0.0001  0.0028  0.0000  0.0010  0.0006 </r>
        <r>  0.0001  0.0004  0.0000  0.0003  0.0000  0.0066  0.0000  0.0006  0.0001 </r>
        <r>  0.0001  0.0000  0.0049  0.0002  0.0017  0.0000  0.0007  0.0000  0.0004 </r>
        <r>  0.0000  0.0134  0.0001  0.0043  0.0003  0.0025  0.0002  0.0001  0.0026 </r>
        <r>  0.0299  0.0002  0.0037  0.0005  0.0657  0.0071  0.0122  0.0000  0.0117 </r>
        <r>  0.0264  0.0000  0.0024  0.0006  0.0504  0.0023  0.0143  0.0024  0.0285 </r>
        <r>  0.0001  0.0113  0.0000  0.0040  0.0000  0.0009  0.0000  0.0006  0.0009 </r>
        <r>  0.0000  0.0295  0.0002  0.0106  0.0000  0.0000  0.0000  0.0000  0.0000 </r>
        <r>  0.0000  0.0314  0.0003  0.0113  0.0000  0.0000  0.0000  0.0000  0.0000 </r>
       </set>
       <set comment="band 96">
        <r>  0.0007  0.0125  0.0054  0.0029  0.0007  0.0003  0.0015  0.0106  0.0009 </r>
        <r>  0.0328  0.0001  0.0021  0.0006  0.0333  0.0019  0.0007  0.0044  0.0106 </r>
        <r>  0.0061  0.0007  0.0041  0.0000  0.0461  0.0021  0.0113  0.0088  0.0147 </r>
        <r>  0.0049  0.0103  0.0049  0.0048  0.0009  0.0065  0.0002  0.0056  0.0008 </r>
        <r>  0.0001  0.0021  0.0000  0.0062  0.0008  0.0004  0.0007  0.0081  0.0007 </r>
        <r>  0.0015  0.0000  0.0003  0.0004  0.0118  0.0007  0.0182  0.0001  0.0049 </r>
        <r>  0.0373  0.0001  0.0067  0.0002  0.0110  0.0001  0.0078  0.0001  0.0030 </r>
        <r>  0.0022  0.0087  0.0001  0.0000  0.0000  0.0064  0.0001  0.0010  0.0001 </r>
        <r>  0.0115  0.0015  0.0008  0.0028  0.0008  0.0034  0.0155  0.0028  0.0003 </r>
        <r>  0.0004  0.0003  0.0025  0.0012  0.0090  0.0000  0.0085  0.0003  0.0039 </r>
        <r>  0.0123  0.0015  0.0040  0.0018  0.0068  0.0006  0.0020  0.0009  0.0022 </r>
        <r>  0.0150  0.0041  0.0020  0.0002  0.0003  0.0053  0.0105  0.0000  0.0001 </r>
        <r>  0.0088  0.0000  0.0006  0.0005  0.0560  0.0003  0.0140  0.0023  0.0195 </r>
        <r>  0.0055  0.0130  0.0032  0.0076  0.0010  0.0000  0.0045  0.0005  0.0006 </r>
        <r>  0.0096  0.0175  0.0030  0.0031  0.0000  0.0003  0.0022  0.0008  0.0000 </r>
        <r>  0.0395  0.0003  0.0011  0.0001  0.0525  0.0037  0.0024  0.0162  0.0173 </r>
        <r>  0.0012  0.0000  0.0009  0.0000  0.0000  0.0000  0.0000  0.0000  0.0000 </r>
        <r>  0.0000  0.0000  0.0000  0.0000  0.0000  0.0000  0.0000  0.0000  0.0000 </r>
       </set>
       <set comment="band 97">
        <r>  0.0332  0.0007  0.0008  0.0006  0.0536  0.0009  0.0015  0.0030  0.0163 </r>
        <r>  0.0022  0.0225  0.0003  0.0067  0.0013  0.0000  0.0000  0.0000  0.0019 </r>
        <r>  0.0008  0.0223  0.0001  0.0072  0.0016  0.0001  0.0002  0.0001  0.0022 </r>
        <r>  0.0318  0.0006  0.0002  0.0008  0.0523  0.0001  0.0015  0.0003  0.0159 </r>
        <r>  0.0008  0.0001  0.0093  0.0003  0.0001  0.0002  0.0000  0.0007  0.0001 </r>
        <r>  0.0003  0.0002  0.0003  0.0000  0.0000  0.0141  0.0000  0.0031  0.0001 </r>
        <r>  0.0001  0.0001  0.0009  0.0000  0.0000  0.0134  0.0003  0.0046  0.0001 </r>
        <r>  0.0000  0.0000  0.0075  0.0001  0.0003  0.0009  0.0003  0.0000  0.0003 </r>
        <r>  0.0387  0.0001  0.0003  0.0000  0.0401  0.0016  0.0000  0.0018  0.0169 </r>
        <r>  0.0001  0.0242  0.0000  0.0082  0.0000  0.0000  0.0001  0.0003  0.0000 </r>
        <r>  0.0000  0.0199  0.0000  0.0099  0.0000  0.0008  0.0001  0.0001  0.0001 </r>
        <r>  0.0214  0.0001  0.0002  0.0000  0.0413  0.0014  0.0013  0.0022  0.0193 </r>
        <r>  0.0020  0.0001  0.0002  0.0000  0.0023  0.0115  0.0002  0.0070  0.0012 </r>
        <r>  0.0054  0.0024  0.0129  0.0002  0.0014  0.0041  0.0003  0.0012  0.0001 </r>
        <r>  0.0006  0.0001  0.0128  0.0003  0.0000  0.0017  0.0024  0.0074  0.0028 </r>
        <r>  0.0000  0.0002  0.0006  0.0000  0.0010  0.0089  0.0009  0.0045  0.0002 </r>
        <r>  0.0007  0.0546  0.0000  0.0136  0.0000  0.0000  0.0000  0.0000  0.0000 </r>
        <r>  0.0000  0.0445  0.0000  0.0114  0.0000  0.0000  0.0000  0.0000  0.0000 </r>
       </set>
       <set comment="band 98">
        <r>  0.0008  0.0159  0.0011  0.0066  0.0009  0.0035  0.0000  0.0118  0.0014 </r>
        <r>  0.0116  0.0004  0.0038  0.0002  0.0432  0.0007  0.0034  0.0024  0.0134 </r>
        <r>  0.0427  0.0001  0.0113  0.0007  0.0347  0.0002  0.0000  0.0003  0.0109 </r>
        <r>  0.0003  0.0183  0.0007  0.0044  0.0001  0.0032  0.0000  0.0093  0.0008 </r>
        <r>  0.0037  0.0003  0.0027  0.0007  0.0005  0.0170  0.0051  0.0000  0.0005 </r>
        <r>  0.0048  0.0000  0.0143  0.0001  0.0001  0.0009  0.0025  0.0009  0.0000 </r>
        <r>  0.0025  0.0005  0.0016  0.0007  0.0000  0.0001  0.0042  0.0031  0.0000 </r>
        <r>  0.0061  0.0002  0.0004  0.0005  0.0001  0.0058  0.0032  0.0147  0.0000 </r>
        <r>  0.0142  0.0149  0.0000  0.0056  0.0003  0.0002  0.0110  0.0000  0.0001 </r>
        <r>  0.0269  0.0000  0.0001  0.0011  0.0342  0.0034  0.0011  0.0114  0.0150 </r>
        <r>  0.0283  0.0004  0.0001  0.0017  0.0292  0.0008  0.0007  0.0010  0.0125 </r>
        <r>  0.0166  0.0148  0.0000  0.0061  0.0001  0.0000  0.0119  0.0002  0.0001 </r>
        <r>  0.0059  0.0000  0.0040  0.0002  0.0063  0.0048  0.0141  0.0042  0.0015 </r>
        <r>  0.0083  0.0001  0.0002  0.0019  0.0035  0.0148  0.0050  0.0028  0.0008 </r>
        <r>  0.0149  0.0018  0.0018  0.0009  0.0002  0.0089  0.0053  0.0021  0.0017 </r>
        <r>  0.0156  0.0006  0.0143  0.0008  0.0005  0.0020  0.0070  0.0022  0.0001 </r>
        <r>  0.0172  0.0003  0.0106  0.0100  0.0000  0.0000  0.0000  0.0000  0.0000 </r>
        <r>  0.0004  0.0001  0.0036  0.0063  0.0000  0.0000  0.0000  0.0000  0.0000 </r>
       </set>
       <set comment="band 99">
        <r>  0.0038  0.0023  0.0149  0.0002  0.0000  0.0009  0.0004  0.0008  0.0000 </r>
        <r>  0.0033  0.0001  0.0071  0.0001  0.0043  0.0070  0.0000  0.0201  0.0012 </r>
        <r>  0.0020  0.0001  0.0025  0.0001  0.0015  0.0044  0.0000  0.0155  0.0005 </r>
        <r>  0.0014  0.0012  0.0128  0.0011  0.0006  0.0001  0.0004  0.0022  0.0004 </r>
        <r>  0.0065  0.0002  0.0068  0.0005  0.0002  0.0034  0.0038  0.0025  0.0000 </r>
        <r>  0.0017  0.0007  0.0077  0.0008  0.0025  0.0026  0.0043  0.0141  0.0011 </r>
        <r>  0.0111  0.0001  0.0008  0.0007  0.0001  0.0037  0.0035  0.0110  0.0000 </r>
        <r>  0.0039  0.0010  0.0096  0.0000  0.0000  0.0000  0.0043  0.0071  0.0000 </r>
        <r>  0.0000  0.0058  0.0000  0.0005  0.0000  0.0048  0.0000  0.0048  0.0000 </r>
        <r>  0.0137  0.0001  0.0304  0.0001  0.0009  0.0000  0.0168  0.0001  0.0002 </r>
        <r>  0.0149  0.0000  0.0016  0.0000  0.0025  0.0005  0.0180  0.0005  0.0017 </r>
        <r>  0.0000  0.0002  0.0000  0.0065  0.0000  0.0004  0.0000  0.0104  0.0000 </r>
        <r>  0.0013  0.0013  0.0136  0.0049  0.0034  0.0006  0.0340  0.0014  0.0010 </r>
        <r>  0.0036  0.0035  0.0071  0.0003  0.0023  0.0023  0.0103  0.0020  0.0000 </r>
        <r>  0.0055  0.0001  0.0065  0.0039  0.0010  0.0040  0.0104  0.0003  0.0011 </r>
        <r>  0.0309  0.0003  0.0003  0.0004  0.0014  0.0000  0.0001  0.0000  0.0002 </r>
        <r>  0.0005  0.0300  0.0007  0.1049  0.0000  0.0000  0.0000  0.0000  0.0000 </r>
        <r>  0.0000  0.0177  0.0003  0.0606  0.0000  0.0000  0.0000  0.0000  0.0000 </r>
       </set>
       <set comment="band 100">
        <r>  0.0053  0.0077  0.0012  0.0025  0.0044  0.0048  0.0000  0.0006  0.0023 </r>
        <r>  0.0217  0.0028  0.0086  0.0025  0.0105  0.0002  0.0001  0.0019  0.0031 </r>
        <r>  0.0105  0.0034  0.0000  0.0018  0.0153  0.0048  0.0000  0.0035  0.0046 </r>
        <r>  0.0085  0.0086  0.0105  0.0016  0.0057  0.0000  0.0000  0.0098  0.0026 </r>
        <r>  0.0073  0.0060  0.0009  0.0012  0.0007  0.0006  0.0009  0.0126  0.0017 </r>
        <r>  0.0185  0.0022  0.0001  0.0015  0.0057  0.0003  0.0022  0.0059  0.0015 </r>
        <r>  0.0013  0.0022  0.0176  0.0009  0.0070  0.0005  0.0006  0.0025  0.0024 </r>
        <r>  0.0013  0.0036  0.0026  0.0034  0.0032  0.0126  0.0001  0.0036  0.0038 </r>
        <r>  0.0058  0.0013  0.0001  0.0015  0.0021  0.0043  0.0036  0.0116  0.0002 </r>
        <r>  0.0001  0.0000  0.0049  0.0000  0.0000  0.0003  0.0006  0.0144  0.0002 </r>
        <r>  0.0039  0.0013  0.0150  0.0004  0.0005  0.0045  0.0030  0.0016  0.0008 </r>
        <r>  0.0109  0.0022  0.0050  0.0004  0.0004  0.0112  0.0050  0.0018  0.0019 </r>
        <r>  0.0829  0.0002  0.0028  0.0001  0.0225  0.0032  0.0046  0.0100  0.0084 </r>
        <r>  0.0073  0.0233  0.0050  0.0060  0.0018  0.0037  0.0052  0.0000  0.0014 </r>
        <r>  0.0122  0.0191  0.0043  0.0109  0.0014  0.0003  0.0066  0.0065  0.0022 </r>
        <r>  0.0185  0.0021  0.0000  0.0019  0.0369  0.0006  0.0034  0.0023  0.0151 </r>
        <r>  0.0213  0.0028  0.0106  0.0016  0.0000  0.0000  0.0000  0.0000  0.0000 </r>
        <r>  0.0015  0.0012  0.0053  0.0007  0.0000  0.0000  0.0000  0.0000  0.0000 </r>
       </set>
       <set comment="band 101">
        <r>  0.0281  0.0026  0.0095  0.0021  0.0157  0.0029  0.0001  0.0000  0.0056 </r>
        <r>  0.0075  0.0119  0.0023  0.0034  0.0041  0.0064  0.0001  0.0017  0.0013 </r>
        <r>  0.0067  0.0119  0.0019  0.0033  0.0045  0.0047  0.0001  0.0039  0.0014 </r>
        <r>  0.0275  0.0027  0.0049  0.0019  0.0157  0.0023  0.0002  0.0001  0.0056 </r>
        <r>  0.0240  0.0045  0.0029  0.0020  0.0169  0.0000  0.0012  0.0057  0.0057 </r>
        <r>  0.0088  0.0165  0.0004  0.0063  0.0032  0.0037  0.0005  0.0006  0.0029 </r>
        <r>  0.0067  0.0161  0.0019  0.0068  0.0033  0.0039  0.0002  0.0003  0.0036 </r>
        <r>  0.0253  0.0041  0.0039  0.0019  0.0153  0.0000  0.0014  0.0022  0.0055 </r>
        <r>  0.0000  0.0001  0.0163  0.0000  0.0006  0.0011  0.0002  0.0007  0.0002 </r>
        <r>  0.0011  0.0032  0.0003  0.0007  0.0001  0.0175  0.0002  0.0064  0.0022 </r>
        <r>  0.0003  0.0004  0.0021  0.0000  0.0001  0.0148  0.0003  0.0102  0.0012 </r>
        <r>  0.0001  0.0001  0.0129  0.0000  0.0001  0.0027  0.0009  0.0001  0.0000 </r>
        <r>  0.0010  0.0108  0.0000  0.0047  0.0000  0.0090  0.0000  0.0024  0.0019 </r>
        <r>  0.0110  0.0005  0.0156  0.0002  0.0057  0.0102  0.0022  0.0029  0.0104 </r>
        <r>  0.0074  0.0005  0.0072  0.0013  0.0111  0.0001  0.0007  0.0085  0.0024 </r>
        <r>  0.0004  0.0138  0.0000  0.0080  0.0006  0.0005  0.0001  0.0024  0.0000 </r>
        <r>  0.0004  0.0627  0.0011  0.0200  0.0000  0.0000  0.0000  0.0000  0.0000 </r>
        <r>  0.0000  0.0327  0.0005  0.0097  0.0000  0.0000  0.0000  0.0000  0.0000 </r>
       </set>
       <set comment="band 102">
        <r>  0.0002  0.0025  0.0060  0.0000  0.0014  0.0002  0.0002  0.0222  0.0001 </r>
        <r>  0.0100  0.0007  0.0126  0.0000  0.0025  0.0008  0.0018  0.0001  0.0012 </r>
        <r>  0.0043  0.0002  0.0496  0.0005  0.0017  0.0003  0.0009  0.0007  0.0009 </r>
        <r>  0.0035  0.0009  0.0004  0.0017  0.0003  0.0148  0.0005  0.0080  0.0000 </r>
        <r>  0.0014  0.0043  0.0181  0.0030  0.0017  0.0027  0.0003  0.0111  0.0008 </r>
        <r>  0.0208  0.0020  0.0157  0.0001  0.0030  0.0018  0.0018  0.0057  0.0012 </r>
        <r>  0.0066  0.0009  0.0123  0.0017  0.0073  0.0042  0.0000  0.0137  0.0030 </r>
        <r>  0.0027  0.0060  0.0180  0.0013  0.0003  0.0033  0.0003  0.0079  0.0002 </r>
        <r>  0.0019  0.0029  0.0318  0.0022  0.0000  0.0009  0.0002  0.0038  0.0003 </r>
        <r>  0.0137  0.0002  0.0002  0.0000  0.0043  0.0028  0.0001  0.0079  0.0012 </r>
        <r>  0.0060  0.0001  0.0131  0.0000  0.0062  0.0036  0.0001  0.0224  0.0018 </r>
        <r>  0.0001  0.0045  0.0226  0.0004  0.0001  0.0040  0.0001  0.0001  0.0005 </r>
        <r>  0.0002  0.0005  0.0032  0.0010  0.0026  0.0000  0.0015  0.0000  0.0006 </r>
        <r>  0.0023  0.0004  0.0011  0.0006  0.0012  0.0001  0.0001  0.0168  0.0007 </r>
        <r>  0.0014  0.0014  0.0013  0.0000  0.0000  0.0108  0.0003  0.0022  0.0020 </r>
        <r>  0.0012  0.0000  0.0532  0.0000  0.0007  0.0003  0.0000  0.0017  0.0000 </r>
        <r>  0.0034  0.0021  0.0018  0.0043  0.0000  0.0000  0.0000  0.0000  0.0000 </r>
        <r>  0.0001  0.0002  0.0002  0.0001  0.0000  0.0000  0.0000  0.0000  0.0000 </r>
       </set>
       <set comment="band 103">
        <r>  0.0004  0.0014  0.0161  0.0008  0.0009  0.0095  0.0006  0.0000  0.0001 </r>
        <r>  0.0035  0.0001  0.0295  0.0006  0.0021  0.0036  0.0006  0.0009  0.0013 </r>
        <r>  0.0163  0.0010  0.0000  0.0002  0.0015  0.0001  0.0019  0.0081  0.0010 </r>
        <r>  0.0039  0.0017  0.0026  0.0004  0.0011  0.0023  0.0011  0.0064  0.0000 </r>
        <r>  0.0000  0.0108  0.0172  0.0014  0.0025  0.0000  0.0003  0.0022  0.0001 </r>
        <r>  0.0168  0.0021  0.0005  0.0006  0.0087  0.0039  0.0024  0.0076  0.0034 </r>
        <r>  0.0194  0.0029  0.0045  0.0001  0.0044  0.0011  0.0011  0.0062  0.0019 </r>
        <r>  0.0109  0.0067  0.0115  0.0059  0.0011  0.0014  0.0036  0.0000  0.0000 </r>
        <r>  0.0000  0.0072  0.0002  0.0016  0.0004  0.0059  0.0004  0.0038  0.0017 </r>
        <r>  0.0414  0.0000  0.0055  0.0003  0.0022  0.0003  0.0097  0.0010  0.0007 </r>
        <r>  0.0067  0.0001  0.0082  0.0010  0.0042  0.0002  0.0002  0.0000  0.0015 </r>
        <r>  0.0050  0.0051  0.0010  0.0030  0.0000  0.0002  0.0006  0.0125  0.0004 </r>
        <r>  0.0012  0.0005  0.0046  0.0016  0.0002  0.0052  0.0166  0.0137  0.0000 </r>
        <r>  0.0005  0.0111  0.0062  0.0016  0.0007  0.0140  0.0006  0.0000  0.0005 </r>
        <r>  0.0001  0.0074  0.0072  0.0035  0.0007  0.0025  0.0004  0.0146  0.0000 </r>
        <r>  0.0050  0.0001  0.0012  0.0002  0.0009  0.0006  0.0009  0.0028  0.0001 </r>
        <r>  0.0001  0.0167  0.0005  0.0531  0.0000  0.0000  0.0000  0.0000  0.0000 </r>
        <r>  0.0004  0.0027  0.0000  0.0097  0.0000  0.0000  0.0000  0.0000  0.0000 </r>
       </set>
       <set comment="band 104">
        <r>  0.0140  0.0002  0.0047  0.0014  0.0011  0.0052  0.0043  0.0001  0.0000 </r>
        <r>  0.0022  0.0012  0.0107  0.0001  0.0003  0.0000  0.0000  0.0112  0.0009 </r>
        <r>  0.0041  0.0001  0.0010  0.0007  0.0003  0.0074  0.0005  0.0011  0.0010 </r>
        <r>  0.0000  0.0010  0.0356  0.0001  0.0012  0.0017  0.0032  0.0019  0.0000 </r>
        <r>  0.0146  0.0031  0.0000  0.0047  0.0023  0.0042  0.0019  0.0038  0.0001 </r>
        <r>  0.0000  0.0036  0.0271  0.0009  0.0019  0.0001  0.0002  0.0024  0.0020 </r>
        <r>  0.0200  0.0053  0.0098  0.0002  0.0016  0.0021  0.0084  0.0004  0.0013 </r>
        <r>  0.0047  0.0066  0.0021  0.0010  0.0052  0.0009  0.0001  0.0084  0.0005 </r>
        <r>  0.0008  0.0074  0.0055  0.0017  0.0039  0.0008  0.0009  0.0064  0.0004 </r>
        <r>  0.0006  0.0014  0.0071  0.0009  0.0064  0.0004  0.0003  0.0002  0.0019 </r>
        <r>  0.0290  0.0062  0.0090  0.0000  0.0036  0.0020  0.0060  0.0016  0.0004 </r>
        <r>  0.0308  0.0075  0.0101  0.0021  0.0033  0.0026  0.0043  0.0067  0.0000 </r>
        <r>  0.0604  0.0010  0.0001  0.0008  0.0048  0.0000  0.0013  0.0006  0.0002 </r>
        <r>  0.0038  0.0040  0.0014  0.0001  0.0022  0.0011  0.0033  0.0010  0.0000 </r>
        <r>  0.0298  0.0023  0.0047  0.0005  0.0020  0.0000  0.0080  0.0033  0.0002 </r>
        <r>  0.0164  0.0034  0.0025  0.0000  0.0088  0.0060  0.0005  0.0063  0.0011 </r>
        <r>  0.0198  0.0016  0.0086  0.0068  0.0000  0.0000  0.0000  0.0000  0.0000 </r>
        <r>  0.0004  0.0011  0.0026  0.0005  0.0000  0.0000  0.0000  0.0000  0.0000 </r>
       </set>
      </set>
     </set>
    </set>
   </array>
  </projected>
 </calculation>
 <structure name="finalpos" >
  <crystal>
   <varray name="basis" >
    <v>       5.63307200       0.00000000       0.21554300 </v>
    <v>       2.81241200       4.88076200       0.21554300 </v>
    <v>       0.00000000       0.00000000      36.85793800 </v>
   </varray>
   <i name="volume">   1013.36049145 </i>
   <varray name="rec_basis" >
    <v>       0.17752303      -0.10229302       0.00000000 </v>
    <v>       0.00000000       0.20488604       0.00000000 </v>
    <v>      -0.00103814      -0.00059996       0.02713120 </v>
   </varray>
  </crystal>
  <varray name="positions" >
   <v>       0.01562500       0.14062500       0.40625000 </v>
   <v>       0.01562500       0.64062500       0.40625000 </v>
   <v>       0.51562500       0.14062500       0.40625000 </v>
   <v>       0.51562500       0.64062500       0.40625000 </v>
   <v>       0.17187500       0.29687500       0.46875000 </v>
   <v>       0.17187500       0.79687500       0.46875000 </v>
   <v>       0.67187500       0.29687500       0.46875000 </v>
   <v>       0.67187500       0.79687500       0.46875000 </v>
   <v>       0.34247444       0.40523468       0.53230526 </v>
   <v>       0.34887172       0.88976237       0.54097522 </v>
   <v>       0.84384526       0.40570708       0.53231935 </v>
   <v>       0.84292722       0.90807722       0.53221361 </v>
   <v>       0.51682292       0.01289069       0.60491278 </v>
   <v>       0.51916408       0.49988322       0.60450733 </v>
   <v>       0.01158444       0.01028632       0.60410772 </v>
   <v>       0.01407785       0.51087182       0.59885500 </v>
   <v>       0.66459661       0.17077194       0.65006915 </v>
   <v>       0.65411993       0.18975739       0.68220610 </v>
  </varray>
  <varray name="selective"  type="logical" >
   <v type="logical" >  F  F  F </v>
   <v type="logical" >  F  F  F </v>
   <v type="logical" >  F  F  F </v>
   <v type="logical" >  F  F  F </v>
   <v type="logical" >  F  F  F </v>
   <v type="logical" >  F  F  F </v>
   <v type="logical" >  F  F  F </v>
   <v type="logical" >  F  F  F </v>
   <v type="logical" >  T  T  T </v>
   <v type="logical" >  T  T  T </v>
   <v type="logical" >  T  T  T </v>
   <v type="logical" >  T  T  T </v>
   <v type="logical" >  T  T  T </v>
   <v type="logical" >  T  T  T </v>
   <v type="logical" >  T  T  T </v>
   <v type="logical" >  T  T  T </v>
   <v type="logical" >  T  T  T </v>
   <v type="logical" >  T  T  T </v>
  </varray>
  <nose>
   <v>      -3.00000000       0.00000000       0.00010000       0.00010000 </v>
  </nose>
 </structure>
</modeling>
