       N       E                     dE             d eps       ncg     rms          rms(c)
DAV:   1     0.306152161001E+02    0.30615E+02   -0.43458E+03  1648   0.612E+02
DAV:   2    -0.447303478718E+01   -0.35088E+02   -0.33172E+02  1784   0.135E+02
DAV:   3    -0.496652097546E+01   -0.49349E+00   -0.48458E+00  1860   0.147E+01
DAV:   4    -0.496888322539E+01   -0.23622E-02   -0.23621E-02  1816   0.122E+00
DAV:   5    -0.496890865608E+01   -0.25431E-04   -0.25430E-04  1872   0.121E-01    0.534E+00
DAV:   6    -0.470889034921E+01    0.26002E+00   -0.10253E+00  1700   0.662E+00    0.334E+00
DAV:   7    -0.470730450211E+01    0.15858E-02   -0.85404E-03  1768   0.705E-01    0.198E+00
DAV:   8    -0.470751972216E+01   -0.21522E-03   -0.20505E-03  1636   0.365E-01    0.102E-01
DAV:   9    -0.470749726916E+01    0.22453E-04   -0.11084E-04  1144   0.721E-02
   1 F= -.47074973E+01 E0= -.47031089E+01  d E =-.877670E-02
