<?xml version="1.0" encoding="ISO-8859-1"?>
<modeling>
 <generator>
  <i name="program" type="string">vasp </i>
  <i name="version" type="string">6.2.0  </i>
  <i name="subversion" type="string">18Jan21 (build Feb  1 2022 01:28:57) complex                          parallel </i>
  <i name="platform" type="string">LinuxPGI </i>
  <i name="date" type="string">2022 05 18 </i>
  <i name="time" type="string">19:37:07 </i>
 </generator>
 <incar>
  <i type="string" name="PREC">Normal</i>
  <i type="string" name="ALGO">38</i>
  <i type="int" name="ISPIN">     1</i>
  <i type="int" name="NELM">    60</i>
  <i type="int" name="NELMIN">     4</i>
  <i type="int" name="IBRION">     2</i>
  <i name="EDIFF">      0.00010000</i>
  <i name="EDIFFG">     -0.03000000</i>
  <i type="int" name="NSW">     0</i>
  <i type="int" name="ISIF">     0</i>
  <i type="int" name="ISYM">     0</i>
  <i name="SYMPREC">      0.00001000</i>
  <i name="ENCUT">    420.00000000</i>
  <i type="logical" name="LREAL"> F  </i>
  <i type="int" name="ISMEAR">     0</i>
  <i name="SIGMA">      0.05000000</i>
  <i type="logical" name="LWAVE"> F  </i>
  <i type="logical" name="LVTOT"> F  </i>
  <i type="int" name="LORBIT">    11</i>
  <i type="logical" name="LASPH"> F  </i>
  <i type="string" name="GGA">RP</i>
 </incar>
 <primitive_cell>
  <structure name="primitive_cell" >
   <crystal>
    <varray name="basis" >
     <v>       2.66860800       0.00000500       1.54073700 </v>
     <v>       0.88954200       2.51598500       1.54073700 </v>
     <v>       0.00000700       0.00000500       3.08145000 </v>
    </varray>
    <i name="volume">     20.68934832 </i>
    <varray name="rec_basis" >
     <v>       0.37472781      -0.13248694      -0.00000064 </v>
     <v>      -0.00000037       0.39745918      -0.00000064 </v>
     <v>      -0.18736518      -0.13248715       0.32452319 </v>
    </varray>
   </crystal>
   <varray name="positions" >
    <v>       0.00000000       0.00000000       0.00000000 </v>
   </varray>
  </structure>
  <varray name="primitive_index" >
   <v type="int" >        1 </v>
  </varray>
 </primitive_cell>
 <kpoints>
  <generation param="Gamma">
   <v type="int" name="divisions">       5        5        5 </v>
   <v name="usershift">      0.00000000       0.00000000       0.00000000 </v>
   <v name="genvec1">      0.20000000      -0.00000000       0.00000000 </v>
   <v name="genvec2">     -0.00000000       0.20000000      -0.00000000 </v>
   <v name="genvec3">      0.00000000       0.00000000       0.20000000 </v>
   <v name="shift">      0.00000000       0.00000000       0.00000000 </v>
  </generation>
  <varray name="kpointlist" >
   <v>       0.00000000       0.00000000       0.00000000 </v>
   <v>       0.20000000       0.00000000       0.00000000 </v>
   <v>       0.00000000       0.20000000       0.00000000 </v>
   <v>       0.00000000       0.00000000       0.20000000 </v>
   <v>       0.20000000       0.20000000       0.20000000 </v>
   <v>       0.40000000       0.00000000       0.00000000 </v>
   <v>       0.00000000       0.40000000       0.00000000 </v>
   <v>       0.00000000       0.00000000       0.40000000 </v>
   <v>       0.40000000       0.40000000       0.40000000 </v>
   <v>       0.20000000       0.20000000       0.00000000 </v>
   <v>       0.00000000       0.20000000       0.20000000 </v>
   <v>       0.20000000       0.00000000       0.20000000 </v>
   <v>       0.40000000       0.20000000       0.00000000 </v>
   <v>       0.00000000       0.40000000       0.20000000 </v>
   <v>       0.20000000       0.00000000       0.40000000 </v>
   <v>       0.20000000       0.20000000      -0.20000000 </v>
   <v>       0.40000000       0.20000000       0.40000000 </v>
   <v>       0.20000000       0.40000000       0.00000000 </v>
   <v>       0.20000000      -0.20000000      -0.20000000 </v>
   <v>       0.40000000       0.40000000       0.20000000 </v>
   <v>       0.00000000       0.20000000       0.40000000 </v>
   <v>      -0.20000000       0.20000000      -0.20000000 </v>
   <v>       0.20000000       0.40000000       0.40000000 </v>
   <v>       0.40000000       0.00000000       0.20000000 </v>
   <v>      -0.40000000       0.20000000       0.00000000 </v>
   <v>       0.00000000      -0.40000000       0.20000000 </v>
   <v>       0.20000000       0.00000000      -0.40000000 </v>
   <v>       0.20000000       0.20000000      -0.40000000 </v>
   <v>      -0.40000000       0.40000000      -0.40000000 </v>
   <v>       0.20000000      -0.40000000       0.00000000 </v>
   <v>       0.40000000      -0.20000000      -0.20000000 </v>
   <v>      -0.40000000      -0.40000000       0.40000000 </v>
   <v>       0.00000000       0.20000000      -0.40000000 </v>
   <v>      -0.20000000       0.40000000      -0.20000000 </v>
   <v>       0.40000000      -0.40000000      -0.40000000 </v>
   <v>      -0.40000000       0.00000000       0.20000000 </v>
   <v>      -0.20000000       0.20000000       0.00000000 </v>
   <v>       0.00000000      -0.20000000       0.20000000 </v>
   <v>       0.20000000       0.00000000      -0.20000000 </v>
   <v>       0.20000000       0.20000000       0.40000000 </v>
   <v>      -0.20000000      -0.40000000      -0.20000000 </v>
   <v>      -0.40000000      -0.20000000      -0.20000000 </v>
   <v>       0.40000000       0.40000000       0.00000000 </v>
   <v>       0.00000000       0.40000000       0.40000000 </v>
   <v>       0.40000000       0.00000000       0.40000000 </v>
   <v>      -0.40000000       0.40000000       0.00000000 </v>
   <v>       0.00000000      -0.40000000       0.40000000 </v>
   <v>       0.40000000       0.00000000      -0.40000000 </v>
   <v>       0.40000000       0.40000000      -0.20000000 </v>
   <v>      -0.40000000       0.20000000      -0.40000000 </v>
   <v>       0.20000000      -0.40000000      -0.40000000 </v>
   <v>      -0.40000000       0.40000000       0.20000000 </v>
   <v>       0.20000000      -0.40000000       0.40000000 </v>
   <v>       0.40000000       0.20000000      -0.40000000 </v>
   <v>       0.40000000       0.20000000      -0.20000000 </v>
   <v>      -0.40000000       0.20000000       0.40000000 </v>
   <v>       0.20000000      -0.40000000      -0.20000000 </v>
   <v>       0.20000000       0.40000000      -0.20000000 </v>
   <v>       0.20000000      -0.20000000      -0.40000000 </v>
   <v>       0.40000000      -0.40000000       0.20000000 </v>
   <v>      -0.20000000       0.20000000      -0.40000000 </v>
   <v>      -0.40000000       0.20000000      -0.20000000 </v>
   <v>       0.20000000       0.40000000      -0.40000000 </v>
  </varray>
  <varray name="weights" >
   <v>       0.00800000 </v>
   <v>       0.01600000 </v>
   <v>       0.01600000 </v>
   <v>       0.01600000 </v>
   <v>       0.01600000 </v>
   <v>       0.01600000 </v>
   <v>       0.01600000 </v>
   <v>       0.01600000 </v>
   <v>       0.01600000 </v>
   <v>       0.01600000 </v>
   <v>       0.01600000 </v>
   <v>       0.01600000 </v>
   <v>       0.01600000 </v>
   <v>       0.01600000 </v>
   <v>       0.01600000 </v>
   <v>       0.01600000 </v>
   <v>       0.01600000 </v>
   <v>       0.01600000 </v>
   <v>       0.01600000 </v>
   <v>       0.01600000 </v>
   <v>       0.01600000 </v>
   <v>       0.01600000 </v>
   <v>       0.01600000 </v>
   <v>       0.01600000 </v>
   <v>       0.01600000 </v>
   <v>       0.01600000 </v>
   <v>       0.01600000 </v>
   <v>       0.01600000 </v>
   <v>       0.01600000 </v>
   <v>       0.01600000 </v>
   <v>       0.01600000 </v>
   <v>       0.01600000 </v>
   <v>       0.01600000 </v>
   <v>       0.01600000 </v>
   <v>       0.01600000 </v>
   <v>       0.01600000 </v>
   <v>       0.01600000 </v>
   <v>       0.01600000 </v>
   <v>       0.01600000 </v>
   <v>       0.01600000 </v>
   <v>       0.01600000 </v>
   <v>       0.01600000 </v>
   <v>       0.01600000 </v>
   <v>       0.01600000 </v>
   <v>       0.01600000 </v>
   <v>       0.01600000 </v>
   <v>       0.01600000 </v>
   <v>       0.01600000 </v>
   <v>       0.01600000 </v>
   <v>       0.01600000 </v>
   <v>       0.01600000 </v>
   <v>       0.01600000 </v>
   <v>       0.01600000 </v>
   <v>       0.01600000 </v>
   <v>       0.01600000 </v>
   <v>       0.01600000 </v>
   <v>       0.01600000 </v>
   <v>       0.01600000 </v>
   <v>       0.01600000 </v>
   <v>       0.01600000 </v>
   <v>       0.01600000 </v>
   <v>       0.01600000 </v>
   <v>       0.01600000 </v>
  </varray>
 </kpoints>
 <parameters>
  <separator name="general" >
   <i type="string" name="SYSTEM">unknown system</i>
   <i type="logical" name="LCOMPAT"> F  </i>
  </separator>
  <separator name="electronic" >
   <i type="string" name="PREC">normal</i>
   <i name="ENMAX">    420.00000000</i>
   <i name="ENAUG">    358.96600000</i>
   <i name="EDIFF">      0.00010000</i>
   <i type="int" name="IALGO">    38</i>
   <i type="int" name="IWAVPR">    10</i>
   <i type="int" name="NBANDS">    12</i>
   <i type="int" name="NBANDSLOW">    -1</i>
   <i type="int" name="NBANDSHIGH">    -1</i>
   <i name="NELECT">     10.00000000</i>
   <i type="int" name="TURBO">     0</i>
   <i type="int" name="IRESTART">     0</i>
   <i type="int" name="NREBOOT">     0</i>
   <i type="int" name="NMIN">     0</i>
   <i name="EREF">      0.00000000</i>
   <separator name="electronic smearing" >
    <i type="int" name="ISMEAR">     0</i>
    <i name="SIGMA">      0.05000000</i>
    <i name="KSPACING">      0.50000000</i>
    <i type="logical" name="KGAMMA"> T  </i>
    <i type="logical" name="KBLOWUP"> T  </i>
   </separator>
   <separator name="electronic projectors" >
    <i type="logical" name="LREAL"> F  </i>
    <v name="ROPT">      0.00000000</v>
    <i type="int" name="LMAXPAW">  -100</i>
    <i type="int" name="LMAXMIX">     2</i>
    <i type="logical" name="NLSPLINE"> F  </i>
   </separator>
   <separator name="electronic startup" >
    <i type="int" name="ISTART">     0</i>
    <i type="int" name="ICHARG">     2</i>
    <i type="int" name="INIWAV">     1</i>
   </separator>
   <separator name="electronic spin" >
    <i type="int" name="ISPIN">     1</i>
    <i type="logical" name="LNONCOLLINEAR"> F  </i>
    <v name="MAGMOM">      1.00000000</v>
    <i name="NUPDOWN">     -1.00000000</i>
    <i type="logical" name="LSORBIT"> F  </i>
    <v name="SAXIS">      0.00000000      0.00000000      1.00000000</v>
    <i type="logical" name="LSPIRAL"> F  </i>
    <v name="QSPIRAL">      0.00000000      0.00000000      0.00000000</v>
    <i type="logical" name="LZEROZ"> F  </i>
   </separator>
   <separator name="electronic exchange-correlation" >
    <i type="logical" name="LASPH"> F  </i>
    <i type="logical" name="LMETAGGA"> F  </i>
   </separator>
   <separator name="electronic convergence" >
    <i type="int" name="NELM">    60</i>
    <i type="int" name="NELMDL">    -5</i>
    <i type="int" name="NELMIN">     4</i>
    <i name="ENINI">    420.00000000</i>
    <separator name="electronic convergence detail" >
     <i type="logical" name="LDIAG"> T  </i>
     <i type="logical" name="LSUBROT"> F  </i>
     <i name="WEIMIN">      0.00000000</i>
     <i name="EBREAK">      0.00000208</i>
     <i name="DEPER">      0.30000000</i>
     <i type="int" name="NRMM">     4</i>
     <i name="TIME">      0.40000000</i>
    </separator>
   </separator>
   <separator name="electronic mixer" >
    <i name="AMIX">      0.40000000</i>
    <i name="BMIX">      1.00000000</i>
    <i name="AMIN">      0.10000000</i>
    <i name="AMIX_MAG">      1.60000000</i>
    <i name="BMIX_MAG">      1.00000000</i>
    <separator name="electronic mixer details" >
     <i type="int" name="IMIX">     4</i>
     <i type="logical" name="MIXFIRST"> F  </i>
     <i type="int" name="MAXMIX">   -45</i>
     <i name="WC">    100.00000000</i>
     <i type="int" name="INIMIX">     1</i>
     <i type="int" name="MIXPRE">     1</i>
     <i type="int" name="MREMOVE">     5</i>
    </separator>
   </separator>
   <separator name="electronic dipolcorrection" >
    <i type="logical" name="LDIPOL"> F  </i>
    <i type="logical" name="LMONO"> F  </i>
    <i type="int" name="IDIPOL">     0</i>
    <i name="EPSILON">      1.00000000</i>
    <v name="DIPOL">   -100.00000000   -100.00000000   -100.00000000</v>
    <i name="EFIELD">      0.00000000</i>
   </separator>
  </separator>
  <separator name="grids" >
   <i type="int" name="NGX">    16</i>
   <i type="int" name="NGY">    16</i>
   <i type="int" name="NGZ">    16</i>
   <i type="int" name="NGXF">    32</i>
   <i type="int" name="NGYF">    32</i>
   <i type="int" name="NGZF">    32</i>
   <i type="logical" name="ADDGRID"> F  </i>
  </separator>
  <separator name="ionic" >
   <i type="int" name="NSW">     0</i>
   <i type="int" name="IBRION">    -1</i>
   <i type="int" name="MDALGO">     0</i>
   <i type="int" name="ISIF">     0</i>
   <i name="PSTRESS">      0.00000000</i>
   <i name="EDIFFG">     -0.03000000</i>
   <i type="int" name="NFREE">     1</i>
   <i name="POTIM">      0.50000000</i>
   <i name="SMASS">     -3.00000000</i>
   <i name="SCALEE">      1.00000000</i>
  </separator>
  <separator name="ionic md" >
   <i name="TEBEG">      0.00010000</i>
   <i name="TEEND">      0.00010000</i>
   <i type="int" name="NBLOCK">     1</i>
   <i type="int" name="KBLOCK">     1</i>
   <i type="int" name="NPACO">   256</i>
   <i name="APACO">     16.00000000</i>
  </separator>
  <separator name="symmetry" >
   <i type="int" name="ISYM">     0</i>
   <i name="SYMPREC">      0.00001000</i>
  </separator>
  <separator name="dos" >
   <i type="int" name="LORBIT">    11</i>
   <v name="RWIGS">     -1.00000000</v>
   <i type="int" name="NEDOS">   301</i>
   <i name="EMIN">     10.00000000</i>
   <i name="EMAX">    -10.00000000</i>
   <i name="EFERMI">      0.00000000</i>
  </separator>
  <separator name="writing" >
   <i type="int" name="NWRITE">     2</i>
   <i type="logical" name="LWAVE"> F  </i>
   <i type="logical" name="LDOWNSAMPLE"> F  </i>
   <i type="logical" name="LCHARG"> T  </i>
   <i type="logical" name="LPARD"> F  </i>
   <i type="logical" name="LVTOT"> F  </i>
   <i type="logical" name="LVHAR"> F  </i>
   <i type="logical" name="LELF"> F  </i>
   <i type="logical" name="LOPTICS"> F  </i>
   <v name="STM">      0.00000000      0.00000000      0.00000000      0.00000000      0.00000000      0.00000000      0.00000000</v>
  </separator>
  <separator name="performance" >
   <i type="int" name="NPAR">     4</i>
   <i type="int" name="NSIM">     4</i>
   <i type="int" name="NBLK">    -1</i>
   <i type="logical" name="LPLANE"> T  </i>
   <i type="logical" name="LSCALAPACK"> T  </i>
   <i type="logical" name="LSCAAWARE"> F  </i>
   <i type="logical" name="LSCALU"> F  </i>
   <i type="logical" name="LASYNC"> F  </i>
   <i type="logical" name="LORBITALREAL"> F  </i>
  </separator>
  <separator name="miscellaneous" >
   <i type="int" name="IDIOT">     3</i>
   <i type="int" name="PHON_NSTRUCT">    -1</i>
   <i type="logical" name="LMUSIC"> F  </i>
   <v name="POMASS">    195.08000000</v>
   <v name="DARWINR">      0.00000000</v>
   <v name="DARWINV">      1.00000000</v>
   <i type="logical" name="LCORR"> T  </i>
  </separator>
  <i type="logical" name="GGA_COMPAT"> T  </i>
  <i type="logical" name="LBERRY"> F  </i>
  <i type="int" name="ICORELEVEL">     0</i>
  <i type="logical" name="LDAU"> F  </i>
  <i type="int" name="I_CONSTRAINED_M">     0</i>
  <separator name="electronic exchange-correlation" >
   <i type="string" name="GGA">RP</i>
   <i type="int" name="VOSKOWN">     0</i>
   <i type="logical" name="LHFCALC"> F  </i>
   <i type="string" name="PRECFOCK"></i>
   <i type="logical" name="LSYMGRAD"> F  </i>
   <i type="logical" name="LHFONE"> F  </i>
   <i type="logical" name="LRHFCALC"> F  </i>
   <i type="logical" name="LTHOMAS"> F  </i>
   <i type="logical" name="LMODELHF"> F  </i>
   <i type="logical" name="LFOCKACE"> F  </i>
   <i name="ENCUT4O">     -1.00000000</i>
   <i type="int" name="EXXOEP">     0</i>
   <i type="int" name="FOURORBIT">     0</i>
   <i name="AEXX">      0.00000000</i>
   <i name="HFALPHA">      0.00000000</i>
   <i name="MCALPHA">      0.00000000</i>
   <i name="ALDAX">      1.00000000</i>
   <i name="AGGAX">      1.00000000</i>
   <i name="ALDAC">      1.00000000</i>
   <i name="AGGAC">      1.00000000</i>
   <i type="int" name="NKREDX">     1</i>
   <i type="int" name="NKREDY">     1</i>
   <i type="int" name="NKREDZ">     1</i>
   <i type="logical" name="SHIFTRED"> F  </i>
   <i type="logical" name="ODDONLY"> F  </i>
   <i type="logical" name="EVENONLY"> F  </i>
   <i type="int" name="LMAXFOCK">     0</i>
   <i type="int" name="NMAXFOCKAE">     0</i>
   <i type="logical" name="LFOCKAEDFT"> F  </i>
   <i name="HFSCREEN">      0.00000000</i>
   <i name="HFSCREENC">      0.00000000</i>
   <i type="int" name="NBANDSGWLOW">     0</i>
  </separator>
  <separator name="vdW DFT" >
   <i type="logical" name="LUSE_VDW"> F  </i>
   <i name="Zab_VDW">     -0.84910000</i>
   <i name="PARAM1">      0.12340000</i>
   <i name="PARAM2">      1.00000000</i>
   <i name="PARAM3">      0.00000000</i>
  </separator>
  <separator name="model GW" >
   <i type="int" name="MODEL_GW">     0</i>
   <i name="MODEL_EPS0">     12.41360899</i>
   <i name="MODEL_ALPHA">      1.00000000</i>
  </separator>
  <separator name="linear response parameters" >
   <i type="logical" name="LEPSILON"> F  </i>
   <i type="logical" name="LRPA"> F  </i>
   <i type="logical" name="LNABLA"> F  </i>
   <i type="logical" name="LVEL"> F  </i>
   <i type="int" name="KINTER">     0</i>
   <i name="CSHIFT">      0.10000000</i>
   <i name="OMEGAMAX">     -1.00000000</i>
   <i name="DEG_THRESHOLD">      0.00200000</i>
   <i name="RTIME">     -0.10000000</i>
   <i name="WPLASMAI">      0.00000000</i>
   <v name="DFIELD">      0.00000000      0.00000000      0.00000000</v>
   <v name="WPLASMA">      0.00000000      0.00000000      0.00000000      0.00000000      0.00000000      0.00000000      0.00000000      0.00000000      0.00000000</v>
  </separator>
  <separator name="orbital magnetization" >
   <i type="logical" name="NUCIND"> F  </i>
   <v name="MAGPOS">      0.00000000      0.00000000      0.00000000</v>
   <i type="logical" name="LNICSALL"> T  </i>
   <i type="logical" name="ORBITALMAG"> F  </i>
   <i type="logical" name="LMAGBLOCH"> F  </i>
   <i type="logical" name="LCHIMAG"> F  </i>
   <i type="logical" name="LGAUGE"> T  </i>
   <i type="int" name="MAGATOM">     0</i>
   <v name="MAGDIPOL">      0.00000000      0.00000000      0.00000000</v>
   <v name="AVECCONST">      0.00000000      0.00000000      0.00000000</v>
  </separator>
  <separator name="response functions" >
   <i type="logical" name="LFINITE_TEMPERATURE"> F  </i>
   <i type="logical" name="LADDER"> F  </i>
   <i type="logical" name="LRPAFORCE"> F  </i>
   <i type="logical" name="LFXC"> F  </i>
   <i type="logical" name="LHARTREE"> T  </i>
   <i type="int" name="IBSE">     0</i>
   <v type="int" name="KPOINT">    -1     0     0     0</v>
   <i type="logical" name="LTCTC"> F  </i>
   <i type="logical" name="LTCTE"> F  </i>
   <i type="logical" name="LTETE"> F  </i>
   <i type="logical" name="LTRIPLET"> F  </i>
   <i type="logical" name="LFXCEPS"> F  </i>
   <i type="logical" name="LFXHEG"> F  </i>
   <i type="int" name="NATURALO">     2</i>
   <i type="logical" name="LHOLEGF"> F  </i>
   <i type="logical" name="L2ORDER"> F  </i>
   <i type="logical" name="LDMP1"> F  </i>
   <i type="logical" name="LMP2LT"> F  </i>
   <i type="logical" name="LSMP2LT"> F  </i>
   <i type="logical" name="LGWLF"> F  </i>
   <i name="ENCUTGW">     -2.00000000</i>
   <i name="ENCUTGWSOFT">     -2.00000000</i>
   <i name="ENCUTLF">     -1.00000000</i>
   <i type="logical" name="LESF_SPLINES"> F  </i>
   <i type="int" name="LMAXMP2">    -1</i>
   <i name="SCISSOR">      0.00000000</i>
   <i type="int" name="NOMEGA">     0</i>
   <i type="int" name="NOMEGAR">     0</i>
   <i type="int" name="NBANDSGW">    -1</i>
   <i type="int" name="NBANDSO">    -1</i>
   <i type="int" name="NBANDSV">    -1</i>
   <i type="int" name="NELM">    60</i>
   <i type="int" name="NELMHF">     1</i>
   <i type="int" name="DIM">     3</i>
   <i type="int" name="IESPILON">     4</i>
   <i type="int" name="ANTIRES">     0</i>
   <i name="OMEGAMAX">    -30.00000000</i>
   <i name="OMEGAMIN">    -30.00000000</i>
   <i name="OMEGATL">   -200.00000000</i>
   <i type="int" name="OMEGAGRID">     0</i>
   <i name="CSHIFT">     -0.10000000</i>
   <i type="logical" name="LSELFENERGY"> F  </i>
   <i type="logical" name="LSPECTRAL"> F  </i>
   <i type="logical" name="LSPECTRALGW"> F  </i>
   <i type="logical" name="LSINGLES"> F  </i>
   <i type="logical" name="LFERMIGW"> F  </i>
   <i type="logical" name="ODDONLYGW"> F  </i>
   <i type="logical" name="EVENONLYGW"> F  </i>
   <i type="int" name="NKREDLFX">     1</i>
   <i type="int" name="NKREDLFY">     1</i>
   <i type="int" name="NKREDLFZ">     1</i>
   <i type="int" name="MAXMEM">  2800</i>
   <i type="int" name="TELESCOPE">     0</i>
   <i type="int" name="NTAUPAR">    -1</i>
   <i type="int" name="NOMEGAPAR">    -1</i>
   <i name="DAMP_NEWTON">      0.80000001</i>
   <i name="LAMBDA">      1.00000000</i>
  </separator>
  <separator name="External order field" >
   <i name="OFIELD_KAPPA">      0.00000000</i>
   <v name="OFIELD_K">      0.00000000      0.00000000      0.00000000</v>
   <i name="OFIELD_Q6_NEAR">      0.00000000</i>
   <i name="OFIELD_Q6_FAR">      0.00000000</i>
   <i name="OFIELD_A">      0.00000000</i>
  </separator>
 </parameters>
 <atominfo>
  <atoms>       1 </atoms>
  <types>       1 </types>
  <array name="atoms" >
   <dimension dim="1">ion</dimension>
   <field type="string">element</field>
   <field type="int">atomtype</field>
   <set>
    <rc><c>Pt</c><c>   1</c></rc>
   </set>
  </array>
  <array name="atomtypes" >
   <dimension dim="1">type</dimension>
   <field type="int">atomspertype</field>
   <field type="string">element</field>
   <field>mass</field>
   <field>valence</field>
   <field type="string">pseudopotential</field>
   <set>
    <rc><c>   1</c><c>Pt</c><c>    195.08000000</c><c>     10.00000000</c><c>  PAW_PBE Pt 04Feb2005                  </c></rc>
   </set>
  </array>
 </atominfo>
 <structure name="initialpos" >
  <crystal>
   <varray name="basis" >
    <v>       2.66860800       0.00000500       1.54073700 </v>
    <v>       0.88954200       2.51598500       1.54073700 </v>
    <v>       0.00000700       0.00000500       3.08145000 </v>
   </varray>
   <i name="volume">     20.68934832 </i>
   <varray name="rec_basis" >
    <v>       0.37472781      -0.13248694      -0.00000064 </v>
    <v>      -0.00000037       0.39745918      -0.00000064 </v>
    <v>      -0.18736518      -0.13248715       0.32452319 </v>
   </varray>
  </crystal>
  <varray name="positions" >
   <v>       0.00000000       0.00000000       0.00000000 </v>
  </varray>
 </structure>
 <calculation>
  <scstep>
   <time name="dav">    0.27    0.27</time>
   <time name="total">    0.28    0.29</time>
   <energy>
    <i name="alphaZ">     45.94551047 </i>
    <i name="ewald">   -757.50136285 </i>
    <i name="hartreedc">   -101.70194624 </i>
    <i name="XCdc">      2.31021382 </i>
    <i name="pawpsdc">    696.70595042 </i>
    <i name="pawaedc">   -667.45827301 </i>
    <i name="eentropy">     -0.00214040 </i>
    <i name="bandstr">     83.99805457 </i>
    <i name="atom">    728.31920932 </i>
    <i name="e_fr_energy">     30.61521610 </i>
    <i name="e_wo_entrp">     30.61735650 </i>
    <i name="e_0_energy">     30.61628630 </i>
   </energy>
  </scstep>
  <scstep>
   <time name="dav">    0.28    0.28</time>
   <time name="total">    0.28    0.28</time>
   <energy>
    <i name="e_fr_energy">     -4.47303479 </i>
    <i name="e_wo_entrp">     -4.46592859 </i>
    <i name="e_0_energy">     -4.46948169 </i>
   </energy>
  </scstep>
  <scstep>
   <time name="dav">    0.28    0.28</time>
   <time name="total">    0.28    0.28</time>
   <energy>
    <i name="e_fr_energy">     -4.96652098 </i>
    <i name="e_wo_entrp">     -4.95566579 </i>
    <i name="e_0_energy">     -4.96109338 </i>
   </energy>
  </scstep>
  <scstep>
   <time name="dav">    0.29    0.29</time>
   <time name="total">    0.29    0.29</time>
   <energy>
    <i name="e_fr_energy">     -4.96888323 </i>
    <i name="e_wo_entrp">     -4.95802756 </i>
    <i name="e_0_energy">     -4.96345539 </i>
   </energy>
  </scstep>
  <scstep>
   <time name="dav">    0.29    0.29</time>
   <time name="total">    0.30    0.30</time>
   <energy>
    <i name="e_fr_energy">     -4.96890866 </i>
    <i name="e_wo_entrp">     -4.95805298 </i>
    <i name="e_0_energy">     -4.96348082 </i>
   </energy>
  </scstep>
  <scstep>
   <time name="dav">    0.27    0.27</time>
   <time name="total">    0.29    0.29</time>
   <energy>
    <i name="e_fr_energy">     -4.70889035 </i>
    <i name="e_wo_entrp">     -4.70030589 </i>
    <i name="e_0_energy">     -4.70459812 </i>
   </energy>
  </scstep>
  <scstep>
   <time name="dav">    0.28    0.28</time>
   <time name="total">    0.30    0.30</time>
   <energy>
    <i name="e_fr_energy">     -4.70730450 </i>
    <i name="e_wo_entrp">     -4.69851709 </i>
    <i name="e_0_energy">     -4.70291080 </i>
   </energy>
  </scstep>
  <scstep>
   <time name="dav">    0.26    0.26</time>
   <time name="total">    0.28    0.28</time>
   <energy>
    <i name="e_fr_energy">     -4.70751972 </i>
    <i name="e_wo_entrp">     -4.69873706 </i>
    <i name="e_0_energy">     -4.70312839 </i>
   </energy>
  </scstep>
  <scstep>
   <time name="dav">    0.22    0.23</time>
   <time name="total">    0.23    0.23</time>
   <energy>
    <i name="alphaZ">     45.94551047 </i>
    <i name="ewald">   -757.50136285 </i>
    <i name="hartreedc">    -92.72098309 </i>
    <i name="XCdc">      1.97932078 </i>
    <i name="pawpsdc">    773.17093514 </i>
    <i name="pawaedc">   -745.31890014 </i>
    <i name="eentropy">     -0.00877670 </i>
    <i name="bandstr">     41.42754979 </i>
    <i name="atom">    728.31920932 </i>
    <i name="e_fr_energy">     -4.70749727 </i>
    <i name="e_wo_entrp">     -4.69872057 </i>
    <i name="e_0_energy">     -4.70310892 </i>
   </energy>
  </scstep>
  <structure>
   <crystal>
    <varray name="basis" >
     <v>       2.66860800       0.00000500       1.54073700 </v>
     <v>       0.88954200       2.51598500       1.54073700 </v>
     <v>       0.00000700       0.00000500       3.08145000 </v>
    </varray>
    <i name="volume">     20.68934832 </i>
    <varray name="rec_basis" >
     <v>       0.37472781      -0.13248694      -0.00000064 </v>
     <v>      -0.00000037       0.39745918      -0.00000064 </v>
     <v>      -0.18736518      -0.13248715       0.32452319 </v>
    </varray>
   </crystal>
   <varray name="positions" >
    <v>       0.00000000       0.00000000       0.00000000 </v>
   </varray>
  </structure>
  <varray name="forces" >
   <v>       0.00000101       0.00000609      -0.00000759 </v>
  </varray>
  <energy>
   <i name="e_fr_energy">     -4.70749727 </i>
   <i name="e_wo_entrp">     -4.69872057 </i>
   <i name="e_0_energy">     -4.70310892 </i>
  </energy>
  <time name="totalsc">    2.59    2.59</time>
  <eigenvalues>
   <array>
    <dimension dim="1">band</dimension>
    <dimension dim="2">kpoint</dimension>
    <dimension dim="3">spin</dimension>
    <field>eigene</field>
    <field>occ</field>
    <set>
     <set comment="spin 1">
      <set comment="kpoint 1">
       <r>   -0.8383    1.0000 </r>
       <r>    4.0500    1.0000 </r>
       <r>    4.0500    1.0000 </r>
       <r>    4.0500    1.0000 </r>
       <r>    5.3168    1.0000 </r>
       <r>    5.3168    1.0000 </r>
       <r>   21.2116    0.0000 </r>
       <r>   24.4683    0.0000 </r>
       <r>   24.4686    0.0000 </r>
       <r>   24.4686    0.0000 </r>
       <r>   28.7668    0.0000 </r>
       <r>   32.3328    0.0000 </r>
      </set>
      <set comment="kpoint 2">
       <r>    0.2692    1.0000 </r>
       <r>    3.8295    1.0000 </r>
       <r>    4.2879    1.0000 </r>
       <r>    4.2880    1.0000 </r>
       <r>    5.3136    1.0000 </r>
       <r>    5.3136    1.0000 </r>
       <r>   19.2318    0.0000 </r>
       <r>   22.1811    0.0000 </r>
       <r>   25.2754    0.0000 </r>
       <r>   25.2756    0.0000 </r>
       <r>   27.2009    0.0000 </r>
       <r>   28.9093    0.0000 </r>
      </set>
      <set comment="kpoint 3">
       <r>    0.2692    1.0000 </r>
       <r>    3.8295    1.0000 </r>
       <r>    4.2879    1.0000 </r>
       <r>    4.2880    1.0000 </r>
       <r>    5.3136    1.0000 </r>
       <r>    5.3136    1.0000 </r>
       <r>   19.2318    0.0000 </r>
       <r>   22.1811    0.0000 </r>
       <r>   25.2754    0.0000 </r>
       <r>   25.2756    0.0000 </r>
       <r>   27.2009    0.0000 </r>
       <r>   28.9092    0.0000 </r>
      </set>
      <set comment="kpoint 4">
       <r>    0.2692    1.0000 </r>
       <r>    3.8295    1.0000 </r>
       <r>    4.2879    1.0000 </r>
       <r>    4.2880    1.0000 </r>
       <r>    5.3136    1.0000 </r>
       <r>    5.3136    1.0000 </r>
       <r>   19.2318    0.0000 </r>
       <r>   22.1811    0.0000 </r>
       <r>   25.2754    0.0000 </r>
       <r>   25.2756    0.0000 </r>
       <r>   27.2009    0.0000 </r>
       <r>   28.9093    0.0000 </r>
      </set>
      <set comment="kpoint 5">
       <r>    0.2692    1.0000 </r>
       <r>    3.8294    1.0000 </r>
       <r>    4.2879    1.0000 </r>
       <r>    4.2879    1.0000 </r>
       <r>    5.3136    1.0000 </r>
       <r>    5.3136    1.0000 </r>
       <r>   19.2315    0.0000 </r>
       <r>   22.1811    0.0000 </r>
       <r>   25.2757    0.0000 </r>
       <r>   25.2757    0.0000 </r>
       <r>   27.2009    0.0000 </r>
       <r>   28.9093    0.0000 </r>
      </set>
      <set comment="kpoint 6">
       <r>    1.6389    1.0000 </r>
       <r>    4.0939    1.0000 </r>
       <r>    4.0940    1.0000 </r>
       <r>    5.5502    1.0000 </r>
       <r>    6.0936    1.0000 </r>
       <r>    6.0937    1.0000 </r>
       <r>   12.2211    0.0000 </r>
       <r>   20.9881    0.0000 </r>
       <r>   23.4035    0.0000 </r>
       <r>   23.4036    0.0000 </r>
       <r>   29.3123    0.0000 </r>
       <r>   29.3125    0.0000 </r>
      </set>
      <set comment="kpoint 7">
       <r>    1.6389    1.0000 </r>
       <r>    4.0939    1.0000 </r>
       <r>    4.0940    1.0000 </r>
       <r>    5.5502    1.0000 </r>
       <r>    6.0936    1.0000 </r>
       <r>    6.0937    1.0000 </r>
       <r>   12.2211    0.0000 </r>
       <r>   20.9881    0.0000 </r>
       <r>   23.4035    0.0000 </r>
       <r>   23.4036    0.0000 </r>
       <r>   29.3123    0.0000 </r>
       <r>   29.3188    0.0000 </r>
      </set>
      <set comment="kpoint 8">
       <r>    1.6389    1.0000 </r>
       <r>    4.0939    1.0000 </r>
       <r>    4.0940    1.0000 </r>
       <r>    5.5502    1.0000 </r>
       <r>    6.0936    1.0000 </r>
       <r>    6.0937    1.0000 </r>
       <r>   12.2211    0.0000 </r>
       <r>   20.9881    0.0000 </r>
       <r>   23.4035    0.0000 </r>
       <r>   23.4036    0.0000 </r>
       <r>   29.3123    0.0000 </r>
       <r>   29.3128    0.0000 </r>
      </set>
      <set comment="kpoint 9">
       <r>    1.6389    1.0000 </r>
       <r>    4.0940    1.0000 </r>
       <r>    4.0940    1.0000 </r>
       <r>    5.5502    1.0000 </r>
       <r>    6.0936    1.0000 </r>
       <r>    6.0936    1.0000 </r>
       <r>   12.2209    0.0000 </r>
       <r>   20.9882    0.0000 </r>
       <r>   23.4037    0.0000 </r>
       <r>   23.4037    0.0000 </r>
       <r>   29.3124    0.0000 </r>
       <r>   29.3125    0.0000 </r>
      </set>
      <set comment="kpoint 10">
       <r>    0.6560    1.0000 </r>
       <r>    3.3877    1.0000 </r>
       <r>    4.6810    1.0000 </r>
       <r>    4.7140    1.0000 </r>
       <r>    4.7140    1.0000 </r>
       <r>    5.6260    1.0000 </r>
       <r>   22.0073    0.0000 </r>
       <r>   22.0074    0.0000 </r>
       <r>   22.3958    0.0000 </r>
       <r>   22.7086    0.0000 </r>
       <r>   24.6935    0.0000 </r>
       <r>   30.2463    0.0000 </r>
      </set>
      <set comment="kpoint 11">
       <r>    0.6560    1.0000 </r>
       <r>    3.3877    1.0000 </r>
       <r>    4.6810    1.0000 </r>
       <r>    4.7140    1.0000 </r>
       <r>    4.7140    1.0000 </r>
       <r>    5.6260    1.0000 </r>
       <r>   22.0073    0.0000 </r>
       <r>   22.0074    0.0000 </r>
       <r>   22.3958    0.0000 </r>
       <r>   22.7086    0.0000 </r>
       <r>   24.6935    0.0000 </r>
       <r>   30.2463    0.0000 </r>
      </set>
      <set comment="kpoint 12">
       <r>    0.6560    1.0000 </r>
       <r>    3.3877    1.0000 </r>
       <r>    4.6810    1.0000 </r>
       <r>    4.7140    1.0000 </r>
       <r>    4.7140    1.0000 </r>
       <r>    5.6260    1.0000 </r>
       <r>   22.0073    0.0000 </r>
       <r>   22.0074    0.0000 </r>
       <r>   22.3958    0.0000 </r>
       <r>   22.7086    0.0000 </r>
       <r>   24.6935    0.0000 </r>
       <r>   30.2464    0.0000 </r>
      </set>
      <set comment="kpoint 13">
       <r>    2.1789    1.0000 </r>
       <r>    3.3477    1.0000 </r>
       <r>    4.0444    1.0000 </r>
       <r>    4.8421    1.0000 </r>
       <r>    6.2205    0.6695 </r>
       <r>    6.6164    0.0000 </r>
       <r>   14.8772    0.0000 </r>
       <r>   20.3509    0.0000 </r>
       <r>   20.4067    0.0000 </r>
       <r>   22.6913    0.0000 </r>
       <r>   27.6343    0.0000 </r>
       <r>   30.6205    0.0000 </r>
      </set>
      <set comment="kpoint 14">
       <r>    2.1789    1.0000 </r>
       <r>    3.3477    1.0000 </r>
       <r>    4.0444    1.0000 </r>
       <r>    4.8421    1.0000 </r>
       <r>    6.2205    0.6696 </r>
       <r>    6.6164    0.0000 </r>
       <r>   14.8772    0.0000 </r>
       <r>   20.3509    0.0000 </r>
       <r>   20.4067    0.0000 </r>
       <r>   22.6913    0.0000 </r>
       <r>   27.6343    0.0000 </r>
       <r>   30.6204    0.0000 </r>
      </set>
      <set comment="kpoint 15">
       <r>    2.1789    1.0000 </r>
       <r>    3.3477    1.0000 </r>
       <r>    4.0444    1.0000 </r>
       <r>    4.8421    1.0000 </r>
       <r>    6.2205    0.6696 </r>
       <r>    6.6164    0.0000 </r>
       <r>   14.8772    0.0000 </r>
       <r>   20.3509    0.0000 </r>
       <r>   20.4067    0.0000 </r>
       <r>   22.6913    0.0000 </r>
       <r>   27.6343    0.0000 </r>
       <r>   30.6204    0.0000 </r>
      </set>
      <set comment="kpoint 16">
       <r>    2.1789    1.0000 </r>
       <r>    3.3478    1.0000 </r>
       <r>    4.0444    1.0000 </r>
       <r>    4.8422    1.0000 </r>
       <r>    6.2205    0.6695 </r>
       <r>    6.6164    0.0000 </r>
       <r>   14.8771    0.0000 </r>
       <r>   20.3510    0.0000 </r>
       <r>   20.4066    0.0000 </r>
       <r>   22.6914    0.0000 </r>
       <r>   27.6340    0.0000 </r>
       <r>   30.6205    0.0000 </r>
      </set>
      <set comment="kpoint 17">
       <r>    2.1789    1.0000 </r>
       <r>    3.3478    1.0000 </r>
       <r>    4.0444    1.0000 </r>
       <r>    4.8422    1.0000 </r>
       <r>    6.2205    0.6696 </r>
       <r>    6.6164    0.0000 </r>
       <r>   14.8770    0.0000 </r>
       <r>   20.3511    0.0000 </r>
       <r>   20.4067    0.0000 </r>
       <r>   22.6914    0.0000 </r>
       <r>   27.6341    0.0000 </r>
       <r>   30.6205    0.0000 </r>
      </set>
      <set comment="kpoint 18">
       <r>    2.1789    1.0000 </r>
       <r>    3.3477    1.0000 </r>
       <r>    4.0444    1.0000 </r>
       <r>    4.8421    1.0000 </r>
       <r>    6.2205    0.6696 </r>
       <r>    6.6164    0.0000 </r>
       <r>   14.8772    0.0000 </r>
       <r>   20.3509    0.0000 </r>
       <r>   20.4067    0.0000 </r>
       <r>   22.6913    0.0000 </r>
       <r>   27.6343    0.0000 </r>
       <r>   30.6204    0.0000 </r>
      </set>
      <set comment="kpoint 19">
       <r>    2.1789    1.0000 </r>
       <r>    3.3478    1.0000 </r>
       <r>    4.0444    1.0000 </r>
       <r>    4.8422    1.0000 </r>
       <r>    6.2205    0.6695 </r>
       <r>    6.6164    0.0000 </r>
       <r>   14.8771    0.0000 </r>
       <r>   20.3510    0.0000 </r>
       <r>   20.4066    0.0000 </r>
       <r>   22.6914    0.0000 </r>
       <r>   27.6340    0.0000 </r>
       <r>   30.6205    0.0000 </r>
      </set>
      <set comment="kpoint 20">
       <r>    2.1789    1.0000 </r>
       <r>    3.3478    1.0000 </r>
       <r>    4.0444    1.0000 </r>
       <r>    4.8421    1.0000 </r>
       <r>    6.2205    0.6696 </r>
       <r>    6.6164    0.0000 </r>
       <r>   14.8770    0.0000 </r>
       <r>   20.3511    0.0000 </r>
       <r>   20.4067    0.0000 </r>
       <r>   22.6914    0.0000 </r>
       <r>   27.6341    0.0000 </r>
       <r>   30.6205    0.0000 </r>
      </set>
      <set comment="kpoint 21">
       <r>    2.1789    1.0000 </r>
       <r>    3.3477    1.0000 </r>
       <r>    4.0444    1.0000 </r>
       <r>    4.8421    1.0000 </r>
       <r>    6.2205    0.6696 </r>
       <r>    6.6164    0.0000 </r>
       <r>   14.8772    0.0000 </r>
       <r>   20.3509    0.0000 </r>
       <r>   20.4067    0.0000 </r>
       <r>   22.6913    0.0000 </r>
       <r>   27.6343    0.0000 </r>
       <r>   30.6204    0.0000 </r>
      </set>
      <set comment="kpoint 22">
       <r>    2.1789    1.0000 </r>
       <r>    3.3478    1.0000 </r>
       <r>    4.0444    1.0000 </r>
       <r>    4.8422    1.0000 </r>
       <r>    6.2205    0.6695 </r>
       <r>    6.6164    0.0000 </r>
       <r>   14.8771    0.0000 </r>
       <r>   20.3510    0.0000 </r>
       <r>   20.4066    0.0000 </r>
       <r>   22.6914    0.0000 </r>
       <r>   27.6340    0.0000 </r>
       <r>   30.6205    0.0000 </r>
      </set>
      <set comment="kpoint 23">
       <r>    2.1789    1.0000 </r>
       <r>    3.3478    1.0000 </r>
       <r>    4.0444    1.0000 </r>
       <r>    4.8422    1.0000 </r>
       <r>    6.2205    0.6696 </r>
       <r>    6.6164    0.0000 </r>
       <r>   14.8770    0.0000 </r>
       <r>   20.3511    0.0000 </r>
       <r>   20.4067    0.0000 </r>
       <r>   22.6915    0.0000 </r>
       <r>   27.6341    0.0000 </r>
       <r>   30.6205    0.0000 </r>
      </set>
      <set comment="kpoint 24">
       <r>    2.1789    1.0000 </r>
       <r>    3.3477    1.0000 </r>
       <r>    4.0444    1.0000 </r>
       <r>    4.8421    1.0000 </r>
       <r>    6.2205    0.6695 </r>
       <r>    6.6164    0.0000 </r>
       <r>   14.8772    0.0000 </r>
       <r>   20.3509    0.0000 </r>
       <r>   20.4067    0.0000 </r>
       <r>   22.6913    0.0000 </r>
       <r>   27.6343    0.0000 </r>
       <r>   30.6204    0.0000 </r>
      </set>
      <set comment="kpoint 25">
       <r>    2.4688    1.0000 </r>
       <r>    3.6373    1.0000 </r>
       <r>    4.4905    1.0000 </r>
       <r>    4.6206    1.0000 </r>
       <r>    6.0428    1.0000 </r>
       <r>    9.0645    0.0000 </r>
       <r>   11.0299    0.0000 </r>
       <r>   17.9485    0.0000 </r>
       <r>   21.6581    0.0000 </r>
       <r>   22.1508    0.0000 </r>
       <r>   29.7225    0.0000 </r>
       <r>   30.4626    0.0000 </r>
      </set>
      <set comment="kpoint 26">
       <r>    2.4688    1.0000 </r>
       <r>    3.6373    1.0000 </r>
       <r>    4.4905    1.0000 </r>
       <r>    4.6206    1.0000 </r>
       <r>    6.0428    1.0000 </r>
       <r>    9.0645    0.0000 </r>
       <r>   11.0299    0.0000 </r>
       <r>   17.9485    0.0000 </r>
       <r>   21.6581    0.0000 </r>
       <r>   22.1508    0.0000 </r>
       <r>   29.7225    0.0000 </r>
       <r>   30.4626    0.0000 </r>
      </set>
      <set comment="kpoint 27">
       <r>    2.4688    1.0000 </r>
       <r>    3.6373    1.0000 </r>
       <r>    4.4905    1.0000 </r>
       <r>    4.6207    1.0000 </r>
       <r>    6.0428    1.0000 </r>
       <r>    9.0645    0.0000 </r>
       <r>   11.0299    0.0000 </r>
       <r>   17.9485    0.0000 </r>
       <r>   21.6581    0.0000 </r>
       <r>   22.1508    0.0000 </r>
       <r>   29.7225    0.0000 </r>
       <r>   30.4626    0.0000 </r>
      </set>
      <set comment="kpoint 28">
       <r>    2.4687    1.0000 </r>
       <r>    3.6373    1.0000 </r>
       <r>    4.4905    1.0000 </r>
       <r>    4.6207    1.0000 </r>
       <r>    6.0428    1.0000 </r>
       <r>    9.0644    0.0000 </r>
       <r>   11.0300    0.0000 </r>
       <r>   17.9484    0.0000 </r>
       <r>   21.6582    0.0000 </r>
       <r>   22.1509    0.0000 </r>
       <r>   29.7225    0.0000 </r>
       <r>   30.4626    0.0000 </r>
      </set>
      <set comment="kpoint 29">
       <r>    2.4687    1.0000 </r>
       <r>    3.6373    1.0000 </r>
       <r>    4.4905    1.0000 </r>
       <r>    4.6207    1.0000 </r>
       <r>    6.0428    1.0000 </r>
       <r>    9.0644    0.0000 </r>
       <r>   11.0299    0.0000 </r>
       <r>   17.9485    0.0000 </r>
       <r>   21.6583    0.0000 </r>
       <r>   22.1509    0.0000 </r>
       <r>   29.7225    0.0000 </r>
       <r>   30.4627    0.0000 </r>
      </set>
      <set comment="kpoint 30">
       <r>    2.4688    1.0000 </r>
       <r>    3.6373    1.0000 </r>
       <r>    4.4905    1.0000 </r>
       <r>    4.6206    1.0000 </r>
       <r>    6.0428    1.0000 </r>
       <r>    9.0645    0.0000 </r>
       <r>   11.0299    0.0000 </r>
       <r>   17.9485    0.0000 </r>
       <r>   21.6581    0.0000 </r>
       <r>   22.1508    0.0000 </r>
       <r>   29.7225    0.0000 </r>
       <r>   30.4626    0.0000 </r>
      </set>
      <set comment="kpoint 31">
       <r>    2.4687    1.0000 </r>
       <r>    3.6373    1.0000 </r>
       <r>    4.4905    1.0000 </r>
       <r>    4.6207    1.0000 </r>
       <r>    6.0428    1.0000 </r>
       <r>    9.0644    0.0000 </r>
       <r>   11.0300    0.0000 </r>
       <r>   17.9484    0.0000 </r>
       <r>   21.6582    0.0000 </r>
       <r>   22.1509    0.0000 </r>
       <r>   29.7225    0.0000 </r>
       <r>   30.4626    0.0000 </r>
      </set>
      <set comment="kpoint 32">
       <r>    2.4687    1.0000 </r>
       <r>    3.6373    1.0000 </r>
       <r>    4.4905    1.0000 </r>
       <r>    4.6207    1.0000 </r>
       <r>    6.0428    1.0000 </r>
       <r>    9.0644    0.0000 </r>
       <r>   11.0299    0.0000 </r>
       <r>   17.9485    0.0000 </r>
       <r>   21.6583    0.0000 </r>
       <r>   22.1509    0.0000 </r>
       <r>   29.7225    0.0000 </r>
       <r>   30.4627    0.0000 </r>
      </set>
      <set comment="kpoint 33">
       <r>    2.4688    1.0000 </r>
       <r>    3.6373    1.0000 </r>
       <r>    4.4905    1.0000 </r>
       <r>    4.6206    1.0000 </r>
       <r>    6.0428    1.0000 </r>
       <r>    9.0645    0.0000 </r>
       <r>   11.0299    0.0000 </r>
       <r>   17.9485    0.0000 </r>
       <r>   21.6581    0.0000 </r>
       <r>   22.1508    0.0000 </r>
       <r>   29.7225    0.0000 </r>
       <r>   30.4626    0.0000 </r>
      </set>
      <set comment="kpoint 34">
       <r>    2.4687    1.0000 </r>
       <r>    3.6373    1.0000 </r>
       <r>    4.4905    1.0000 </r>
       <r>    4.6207    1.0000 </r>
       <r>    6.0428    1.0000 </r>
       <r>    9.0644    0.0000 </r>
       <r>   11.0300    0.0000 </r>
       <r>   17.9484    0.0000 </r>
       <r>   21.6582    0.0000 </r>
       <r>   22.1509    0.0000 </r>
       <r>   29.7225    0.0000 </r>
       <r>   30.4626    0.0000 </r>
      </set>
      <set comment="kpoint 35">
       <r>    2.4687    1.0000 </r>
       <r>    3.6373    1.0000 </r>
       <r>    4.4905    1.0000 </r>
       <r>    4.6207    1.0000 </r>
       <r>    6.0428    1.0000 </r>
       <r>    9.0644    0.0000 </r>
       <r>   11.0299    0.0000 </r>
       <r>   17.9485    0.0000 </r>
       <r>   21.6583    0.0000 </r>
       <r>   22.1509    0.0000 </r>
       <r>   29.7225    0.0000 </r>
       <r>   30.4627    0.0000 </r>
      </set>
      <set comment="kpoint 36">
       <r>    2.4688    1.0000 </r>
       <r>    3.6373    1.0000 </r>
       <r>    4.4905    1.0000 </r>
       <r>    4.6206    1.0000 </r>
       <r>    6.0428    1.0000 </r>
       <r>    9.0645    0.0000 </r>
       <r>   11.0299    0.0000 </r>
       <r>   17.9485    0.0000 </r>
       <r>   21.6581    0.0000 </r>
       <r>   22.1508    0.0000 </r>
       <r>   29.7225    0.0000 </r>
       <r>   30.4626    0.0000 </r>
      </set>
      <set comment="kpoint 37">
       <r>    1.7985    1.0000 </r>
       <r>    3.5110    1.0000 </r>
       <r>    4.1311    1.0000 </r>
       <r>    4.7984    1.0000 </r>
       <r>    4.9044    1.0000 </r>
       <r>    6.5593    0.0000 </r>
       <r>   16.8467    0.0000 </r>
       <r>   18.6540    0.0000 </r>
       <r>   23.3023    0.0000 </r>
       <r>   25.7033    0.0000 </r>
       <r>   25.9650    0.0000 </r>
       <r>   30.2081    0.0000 </r>
      </set>
      <set comment="kpoint 38">
       <r>    1.7985    1.0000 </r>
       <r>    3.5110    1.0000 </r>
       <r>    4.1311    1.0000 </r>
       <r>    4.7984    1.0000 </r>
       <r>    4.9044    1.0000 </r>
       <r>    6.5593    0.0000 </r>
       <r>   16.8467    0.0000 </r>
       <r>   18.6540    0.0000 </r>
       <r>   23.3023    0.0000 </r>
       <r>   25.7033    0.0000 </r>
       <r>   25.9650    0.0000 </r>
       <r>   30.2081    0.0000 </r>
      </set>
      <set comment="kpoint 39">
       <r>    1.7985    1.0000 </r>
       <r>    3.5110    1.0000 </r>
       <r>    4.1311    1.0000 </r>
       <r>    4.7984    1.0000 </r>
       <r>    4.9044    1.0000 </r>
       <r>    6.5593    0.0000 </r>
       <r>   16.8467    0.0000 </r>
       <r>   18.6540    0.0000 </r>
       <r>   23.3023    0.0000 </r>
       <r>   25.7033    0.0000 </r>
       <r>   25.9650    0.0000 </r>
       <r>   30.2081    0.0000 </r>
      </set>
      <set comment="kpoint 40">
       <r>    1.7985    1.0000 </r>
       <r>    3.5110    1.0000 </r>
       <r>    4.1311    1.0000 </r>
       <r>    4.7984    1.0000 </r>
       <r>    4.9045    1.0000 </r>
       <r>    6.5593    0.0000 </r>
       <r>   16.8466    0.0000 </r>
       <r>   18.6540    0.0000 </r>
       <r>   23.3024    0.0000 </r>
       <r>   25.7033    0.0000 </r>
       <r>   25.9651    0.0000 </r>
       <r>   30.2082    0.0000 </r>
      </set>
      <set comment="kpoint 41">
       <r>    1.7985    1.0000 </r>
       <r>    3.5110    1.0000 </r>
       <r>    4.1311    1.0000 </r>
       <r>    4.7984    1.0000 </r>
       <r>    4.9045    1.0000 </r>
       <r>    6.5593    0.0000 </r>
       <r>   16.8466    0.0000 </r>
       <r>   18.6540    0.0000 </r>
       <r>   23.3024    0.0000 </r>
       <r>   25.7033    0.0000 </r>
       <r>   25.9651    0.0000 </r>
       <r>   30.2082    0.0000 </r>
      </set>
      <set comment="kpoint 42">
       <r>    1.7985    1.0000 </r>
       <r>    3.5110    1.0000 </r>
       <r>    4.1311    1.0000 </r>
       <r>    4.7984    1.0000 </r>
       <r>    4.9045    1.0000 </r>
       <r>    6.5593    0.0000 </r>
       <r>   16.8466    0.0000 </r>
       <r>   18.6540    0.0000 </r>
       <r>   23.3024    0.0000 </r>
       <r>   25.7034    0.0000 </r>
       <r>   25.9651    0.0000 </r>
       <r>   30.2082    0.0000 </r>
      </set>
      <set comment="kpoint 43">
       <r>    2.1139    1.0000 </r>
       <r>    2.4748    1.0000 </r>
       <r>    6.1652    0.9773 </r>
       <r>    6.1953    0.8750 </r>
       <r>    6.1953    0.8750 </r>
       <r>    6.6731    0.0000 </r>
       <r>   15.0745    0.0000 </r>
       <r>   17.4122    0.0000 </r>
       <r>   17.4124    0.0000 </r>
       <r>   22.5866    0.0000 </r>
       <r>   24.7822    0.0000 </r>
       <r>   33.2001    0.0000 </r>
      </set>
      <set comment="kpoint 44">
       <r>    2.1139    1.0000 </r>
       <r>    2.4748    1.0000 </r>
       <r>    6.1652    0.9773 </r>
       <r>    6.1953    0.8750 </r>
       <r>    6.1953    0.8750 </r>
       <r>    6.6731    0.0000 </r>
       <r>   15.0745    0.0000 </r>
       <r>   17.4122    0.0000 </r>
       <r>   17.4124    0.0000 </r>
       <r>   22.5866    0.0000 </r>
       <r>   24.7822    0.0000 </r>
       <r>   33.2001    0.0000 </r>
      </set>
      <set comment="kpoint 45">
       <r>    2.1139    1.0000 </r>
       <r>    2.4748    1.0000 </r>
       <r>    6.1652    0.9773 </r>
       <r>    6.1953    0.8750 </r>
       <r>    6.1953    0.8750 </r>
       <r>    6.6731    0.0000 </r>
       <r>   15.0745    0.0000 </r>
       <r>   17.4122    0.0000 </r>
       <r>   17.4124    0.0000 </r>
       <r>   22.5866    0.0000 </r>
       <r>   24.7822    0.0000 </r>
       <r>   33.2001    0.0000 </r>
      </set>
      <set comment="kpoint 46">
       <r>    2.4186    1.0000 </r>
       <r>    2.8168    1.0000 </r>
       <r>    5.0949    1.0000 </r>
       <r>    5.7599    1.0000 </r>
       <r>    6.3050    0.0255 </r>
       <r>   10.9506    0.0000 </r>
       <r>   11.3894    0.0000 </r>
       <r>   14.5900    0.0000 </r>
       <r>   18.0712    0.0000 </r>
       <r>   23.5051    0.0000 </r>
       <r>   27.4596    0.0000 </r>
       <r>   31.6707    0.0000 </r>
      </set>
      <set comment="kpoint 47">
       <r>    2.4186    1.0000 </r>
       <r>    2.8168    1.0000 </r>
       <r>    5.0949    1.0000 </r>
       <r>    5.7599    1.0000 </r>
       <r>    6.3050    0.0255 </r>
       <r>   10.9506    0.0000 </r>
       <r>   11.3894    0.0000 </r>
       <r>   14.5900    0.0000 </r>
       <r>   18.0712    0.0000 </r>
       <r>   23.5051    0.0000 </r>
       <r>   27.4596    0.0000 </r>
       <r>   31.6707    0.0000 </r>
      </set>
      <set comment="kpoint 48">
       <r>    2.4186    1.0000 </r>
       <r>    2.8168    1.0000 </r>
       <r>    5.0949    1.0000 </r>
       <r>    5.7599    1.0000 </r>
       <r>    6.3050    0.0255 </r>
       <r>   10.9506    0.0000 </r>
       <r>   11.3894    0.0000 </r>
       <r>   14.5900    0.0000 </r>
       <r>   18.0712    0.0000 </r>
       <r>   23.5051    0.0000 </r>
       <r>   27.4596    0.0000 </r>
       <r>   31.6707    0.0000 </r>
      </set>
      <set comment="kpoint 49">
       <r>    2.4186    1.0000 </r>
       <r>    2.8168    1.0000 </r>
       <r>    5.0949    1.0000 </r>
       <r>    5.7599    1.0000 </r>
       <r>    6.3050    0.0256 </r>
       <r>   10.9506    0.0000 </r>
       <r>   11.3894    0.0000 </r>
       <r>   14.5899    0.0000 </r>
       <r>   18.0713    0.0000 </r>
       <r>   23.5053    0.0000 </r>
       <r>   27.4594    0.0000 </r>
       <r>   31.6707    0.0000 </r>
      </set>
      <set comment="kpoint 50">
       <r>    2.4186    1.0000 </r>
       <r>    2.8168    1.0000 </r>
       <r>    5.0949    1.0000 </r>
       <r>    5.7599    1.0000 </r>
       <r>    6.3050    0.0256 </r>
       <r>   10.9506    0.0000 </r>
       <r>   11.3894    0.0000 </r>
       <r>   14.5899    0.0000 </r>
       <r>   18.0713    0.0000 </r>
       <r>   23.5053    0.0000 </r>
       <r>   27.4594    0.0000 </r>
       <r>   31.6707    0.0000 </r>
      </set>
      <set comment="kpoint 51">
       <r>    2.4186    1.0000 </r>
       <r>    2.8168    1.0000 </r>
       <r>    5.0949    1.0000 </r>
       <r>    5.7599    1.0000 </r>
       <r>    6.3050    0.0256 </r>
       <r>   10.9506    0.0000 </r>
       <r>   11.3894    0.0000 </r>
       <r>   14.5899    0.0000 </r>
       <r>   18.0713    0.0000 </r>
       <r>   23.5053    0.0000 </r>
       <r>   27.4594    0.0000 </r>
       <r>   31.6707    0.0000 </r>
      </set>
      <set comment="kpoint 52">
       <r>    3.0312    1.0000 </r>
       <r>    3.2321    1.0000 </r>
       <r>    3.7601    1.0000 </r>
       <r>    5.4107    1.0000 </r>
       <r>    6.1845    0.9275 </r>
       <r>    9.3653    0.0000 </r>
       <r>   13.6928    0.0000 </r>
       <r>   14.9712    0.0000 </r>
       <r>   17.6533    0.0000 </r>
       <r>   26.3861    0.0000 </r>
       <r>   27.0184    0.0000 </r>
       <r>   30.4486    0.0000 </r>
      </set>
      <set comment="kpoint 53">
       <r>    3.0312    1.0000 </r>
       <r>    3.2321    1.0000 </r>
       <r>    3.7601    1.0000 </r>
       <r>    5.4107    1.0000 </r>
       <r>    6.1845    0.9275 </r>
       <r>    9.3653    0.0000 </r>
       <r>   13.6928    0.0000 </r>
       <r>   14.9712    0.0000 </r>
       <r>   17.6533    0.0000 </r>
       <r>   26.3861    0.0000 </r>
       <r>   27.0184    0.0000 </r>
       <r>   30.4486    0.0000 </r>
      </set>
      <set comment="kpoint 54">
       <r>    3.0312    1.0000 </r>
       <r>    3.2321    1.0000 </r>
       <r>    3.7601    1.0000 </r>
       <r>    5.4107    1.0000 </r>
       <r>    6.1845    0.9275 </r>
       <r>    9.3653    0.0000 </r>
       <r>   13.6928    0.0000 </r>
       <r>   14.9712    0.0000 </r>
       <r>   17.6533    0.0000 </r>
       <r>   26.3861    0.0000 </r>
       <r>   27.0184    0.0000 </r>
       <r>   30.4486    0.0000 </r>
      </set>
      <set comment="kpoint 55">
       <r>    3.0312    1.0000 </r>
       <r>    3.2321    1.0000 </r>
       <r>    3.7601    1.0000 </r>
       <r>    5.4107    1.0000 </r>
       <r>    6.1845    0.9275 </r>
       <r>    9.3654    0.0000 </r>
       <r>   13.6927    0.0000 </r>
       <r>   14.9712    0.0000 </r>
       <r>   17.6533    0.0000 </r>
       <r>   26.3859    0.0000 </r>
       <r>   27.0184    0.0000 </r>
       <r>   30.4485    0.0000 </r>
      </set>
      <set comment="kpoint 56">
       <r>    3.0312    1.0000 </r>
       <r>    3.2321    1.0000 </r>
       <r>    3.7601    1.0000 </r>
       <r>    5.4107    1.0000 </r>
       <r>    6.1845    0.9275 </r>
       <r>    9.3653    0.0000 </r>
       <r>   13.6928    0.0000 </r>
       <r>   14.9712    0.0000 </r>
       <r>   17.6533    0.0000 </r>
       <r>   26.3861    0.0000 </r>
       <r>   27.0184    0.0000 </r>
       <r>   30.4486    0.0000 </r>
      </set>
      <set comment="kpoint 57">
       <r>    3.0312    1.0000 </r>
       <r>    3.2321    1.0000 </r>
       <r>    3.7601    1.0000 </r>
       <r>    5.4107    1.0000 </r>
       <r>    6.1845    0.9275 </r>
       <r>    9.3654    0.0000 </r>
       <r>   13.6927    0.0000 </r>
       <r>   14.9712    0.0000 </r>
       <r>   17.6533    0.0000 </r>
       <r>   26.3859    0.0000 </r>
       <r>   27.0184    0.0000 </r>
       <r>   30.4485    0.0000 </r>
      </set>
      <set comment="kpoint 58">
       <r>    3.0312    1.0000 </r>
       <r>    3.2321    1.0000 </r>
       <r>    3.7601    1.0000 </r>
       <r>    5.4107    1.0000 </r>
       <r>    6.1845    0.9275 </r>
       <r>    9.3654    0.0000 </r>
       <r>   13.6927    0.0000 </r>
       <r>   14.9712    0.0000 </r>
       <r>   17.6533    0.0000 </r>
       <r>   26.3859    0.0000 </r>
       <r>   27.0184    0.0000 </r>
       <r>   30.4485    0.0000 </r>
      </set>
      <set comment="kpoint 59">
       <r>    3.0312    1.0000 </r>
       <r>    3.2321    1.0000 </r>
       <r>    3.7601    1.0000 </r>
       <r>    5.4107    1.0000 </r>
       <r>    6.1845    0.9275 </r>
       <r>    9.3654    0.0000 </r>
       <r>   13.6927    0.0000 </r>
       <r>   14.9712    0.0000 </r>
       <r>   17.6533    0.0000 </r>
       <r>   26.3859    0.0000 </r>
       <r>   27.0184    0.0000 </r>
       <r>   30.4485    0.0000 </r>
      </set>
      <set comment="kpoint 60">
       <r>    3.0312    1.0000 </r>
       <r>    3.2321    1.0000 </r>
       <r>    3.7601    1.0000 </r>
       <r>    5.4107    1.0000 </r>
       <r>    6.1845    0.9275 </r>
       <r>    9.3653    0.0000 </r>
       <r>   13.6928    0.0000 </r>
       <r>   14.9712    0.0000 </r>
       <r>   17.6533    0.0000 </r>
       <r>   26.3861    0.0000 </r>
       <r>   27.0184    0.0000 </r>
       <r>   30.4486    0.0000 </r>
      </set>
      <set comment="kpoint 61">
       <r>    3.0312    1.0000 </r>
       <r>    3.2321    1.0000 </r>
       <r>    3.7601    1.0000 </r>
       <r>    5.4107    1.0000 </r>
       <r>    6.1845    0.9275 </r>
       <r>    9.3654    0.0000 </r>
       <r>   13.6927    0.0000 </r>
       <r>   14.9712    0.0000 </r>
       <r>   17.6533    0.0000 </r>
       <r>   26.3859    0.0000 </r>
       <r>   27.0184    0.0000 </r>
       <r>   30.4485    0.0000 </r>
      </set>
      <set comment="kpoint 62">
       <r>    3.0312    1.0000 </r>
       <r>    3.2321    1.0000 </r>
       <r>    3.7601    1.0000 </r>
       <r>    5.4107    1.0000 </r>
       <r>    6.1845    0.9275 </r>
       <r>    9.3654    0.0000 </r>
       <r>   13.6927    0.0000 </r>
       <r>   14.9712    0.0000 </r>
       <r>   17.6533    0.0000 </r>
       <r>   26.3859    0.0000 </r>
       <r>   27.0184    0.0000 </r>
       <r>   30.4485    0.0000 </r>
      </set>
      <set comment="kpoint 63">
       <r>    3.0312    1.0000 </r>
       <r>    3.2321    1.0000 </r>
       <r>    3.7601    1.0000 </r>
       <r>    5.4107    1.0000 </r>
       <r>    6.1845    0.9275 </r>
       <r>    9.3653    0.0000 </r>
       <r>   13.6928    0.0000 </r>
       <r>   14.9712    0.0000 </r>
       <r>   17.6533    0.0000 </r>
       <r>   26.3861    0.0000 </r>
       <r>   27.0184    0.0000 </r>
       <r>   30.4486    0.0000 </r>
      </set>
     </set>
    </set>
   </array>
  </eigenvalues>
  <separator name="orbital magnetization" >
   <v name="MAGDIPOLOUT">      0.00000000      0.00000000      0.00000000</v>
  </separator>
  <dos>
   <i name="efermi">      6.23599047 </i>
   <total>
    <array>
     <dimension dim="1">gridpoints</dimension>
     <dimension dim="2">spin</dimension>
     <field>energy</field>
     <field>total</field>
     <field>integrated</field>
     <set>
      <set comment="spin 1">
       <r>    -2.5402     0.0000     0.0000 </r>
       <r>    -2.4154     0.0000     0.0000 </r>
       <r>    -2.2906     0.0000     0.0000 </r>
       <r>    -2.1658     0.0000     0.0000 </r>
       <r>    -2.0410     0.0000     0.0000 </r>
       <r>    -1.9162     0.0000     0.0000 </r>
       <r>    -1.7914     0.0000     0.0000 </r>
       <r>    -1.6666     0.0000     0.0000 </r>
       <r>    -1.5418     0.0000     0.0000 </r>
       <r>    -1.4170     0.0000     0.0000 </r>
       <r>    -1.2921     0.0000     0.0000 </r>
       <r>    -1.1673     0.0000     0.0000 </r>
       <r>    -1.0425     0.0000     0.0000 </r>
       <r>    -0.9177     0.0016     0.0002 </r>
       <r>    -0.7929     0.1138     0.0144 </r>
       <r>    -0.6681     0.0128     0.0160 </r>
       <r>    -0.5433     0.0000     0.0160 </r>
       <r>    -0.4185     0.0000     0.0160 </r>
       <r>    -0.2937     0.0000     0.0160 </r>
       <r>    -0.1689     0.0000     0.0160 </r>
       <r>    -0.0441     0.0000     0.0160 </r>
       <r>     0.0807     0.0000     0.0160 </r>
       <r>     0.2055     0.0368     0.0206 </r>
       <r>     0.3304     0.9458     0.1386 </r>
       <r>     0.4552     0.0430     0.1440 </r>
       <r>     0.5800     0.0121     0.1455 </r>
       <r>     0.7048     0.6925     0.2319 </r>
       <r>     0.8296     0.0646     0.2400 </r>
       <r>     0.9544     0.0000     0.2400 </r>
       <r>     1.0792     0.0000     0.2400 </r>
       <r>     1.2040     0.0000     0.2400 </r>
       <r>     1.3288     0.0000     0.2400 </r>
       <r>     1.4536     0.0000     0.2400 </r>
       <r>     1.5784     0.0446     0.2456 </r>
       <r>     1.7032     0.9510     0.3643 </r>
       <r>     1.8280     1.2578     0.5212 </r>
       <r>     1.9528     0.3105     0.5600 </r>
       <r>     2.0777     0.1240     0.5755 </r>
       <r>     2.2025     2.9396     0.9424 </r>
       <r>     2.3273     0.7899     1.0409 </r>
       <r>     2.4521     2.4463     1.3463 </r>
       <r>     2.5769     2.9255     1.7114 </r>
       <r>     2.7017     0.0058     1.7121 </r>
       <r>     2.8265     0.9352     1.8288 </r>
       <r>     2.9513     0.6388     1.9086 </r>
       <r>     3.0761     2.7261     2.2488 </r>
       <r>     3.2009     0.8945     2.3604 </r>
       <r>     3.3257     3.3352     2.7767 </r>
       <r>     3.4505     3.0395     3.1560 </r>
       <r>     3.5753     1.5754     3.3527 </r>
       <r>     3.7002     3.0297     3.7308 </r>
       <r>     3.8250     3.4129     4.1568 </r>
       <r>     3.9498     0.6791     4.2415 </r>
       <r>     4.0746     3.4331     4.6700 </r>
       <r>     4.1994     3.5742     5.1161 </r>
       <r>     4.3242     1.7699     5.3370 </r>
       <r>     4.4490     0.6831     5.4222 </r>
       <r>     4.5738     2.9637     5.7921 </r>
       <r>     4.6986     3.8219     6.2691 </r>
       <r>     4.8234     3.4074     6.6944 </r>
       <r>     4.9482     3.8811     7.1788 </r>
       <r>     5.0730     0.5823     7.2515 </r>
       <r>     5.1978     1.1245     7.3918 </r>
       <r>     5.3227     1.3997     7.5665 </r>
       <r>     5.4475     3.5291     8.0069 </r>
       <r>     5.5723     1.2590     8.1641 </r>
       <r>     5.6971     1.0341     8.2931 </r>
       <r>     5.8219     1.4361     8.4724 </r>
       <r>     5.9467     0.0712     8.4813 </r>
       <r>     6.0715     2.9751     8.8526 </r>
       <r>     6.1963     6.2522     9.6329 </r>
       <r>     6.3211     5.3844    10.3049 </r>
       <r>     6.4459     0.5065    10.3681 </r>
       <r>     6.5707     1.2665    10.5262 </r>
       <r>     6.6955     3.8755    11.0099 </r>
       <r>     6.8203     0.2413    11.0400 </r>
       <r>     6.9451     0.0000    11.0400 </r>
       <r>     7.0700     0.0000    11.0400 </r>
       <r>     7.1948     0.0000    11.0400 </r>
       <r>     7.3196     0.0000    11.0400 </r>
       <r>     7.4444     0.0000    11.0400 </r>
       <r>     7.5692     0.0000    11.0400 </r>
       <r>     7.6940     0.0000    11.0400 </r>
       <r>     7.8188     0.0000    11.0400 </r>
       <r>     7.9436     0.0000    11.0400 </r>
       <r>     8.0684     0.0000    11.0400 </r>
       <r>     8.1932     0.0000    11.0400 </r>
       <r>     8.3180     0.0000    11.0400 </r>
       <r>     8.4428     0.0000    11.0400 </r>
       <r>     8.5676     0.0000    11.0400 </r>
       <r>     8.6925     0.0000    11.0400 </r>
       <r>     8.8173     0.0000    11.0400 </r>
       <r>     8.9421     0.0008    11.0401 </r>
       <r>     9.0669     1.6231    11.2427 </r>
       <r>     9.1917     1.4524    11.4239 </r>
       <r>     9.3165     0.2577    11.4561 </r>
       <r>     9.4413     2.7709    11.8019 </r>
       <r>     9.5661     0.0487    11.8080 </r>
       <r>     9.6909     0.0000    11.8080 </r>
       <r>     9.8157     0.0000    11.8080 </r>
       <r>     9.9405     0.0000    11.8080 </r>
       <r>    10.0653     0.0000    11.8080 </r>
       <r>    10.1901     0.0000    11.8080 </r>
       <r>    10.3150     0.0000    11.8080 </r>
       <r>    10.4398     0.0000    11.8080 </r>
       <r>    10.5646     0.0000    11.8080 </r>
       <r>    10.6894     0.0000    11.8080 </r>
       <r>    10.8142     0.0001    11.8080 </r>
       <r>    10.9390     0.5864    11.8812 </r>
       <r>    11.0638     3.5073    12.3189 </r>
       <r>    11.1886     0.5213    12.3840 </r>
       <r>    11.3134     0.0243    12.3870 </r>
       <r>    11.4382     1.3854    12.5599 </r>
       <r>    11.5630     0.1287    12.5760 </r>
       <r>    11.6878     0.0000    12.5760 </r>
       <r>    11.8126     0.0000    12.5760 </r>
       <r>    11.9374     0.0000    12.5760 </r>
       <r>    12.0623     0.0000    12.5760 </r>
       <r>    12.1871     0.1725    12.5975 </r>
       <r>    12.3119     0.8479    12.7033 </r>
       <r>    12.4367     0.0052    12.7040 </r>
       <r>    12.5615     0.0000    12.7040 </r>
       <r>    12.6863     0.0000    12.7040 </r>
       <r>    12.8111     0.0000    12.7040 </r>
       <r>    12.9359     0.0000    12.7040 </r>
       <r>    13.0607     0.0000    12.7040 </r>
       <r>    13.1855     0.0000    12.7040 </r>
       <r>    13.3103     0.0000    12.7040 </r>
       <r>    13.4351     0.0000    12.7040 </r>
       <r>    13.5599     0.0003    12.7040 </r>
       <r>    13.6848     1.2634    12.8617 </r>
       <r>    13.8096     1.8116    13.0878 </r>
       <r>    13.9344     0.0015    13.0880 </r>
       <r>    14.0592     0.0000    13.0880 </r>
       <r>    14.1840     0.0000    13.0880 </r>
       <r>    14.3088     0.0000    13.0880 </r>
       <r>    14.4336     0.0000    13.0880 </r>
       <r>    14.5584     0.2864    13.1237 </r>
       <r>    14.6832     1.2455    13.2792 </r>
       <r>    14.8080     0.0844    13.2897 </r>
       <r>    14.9328     3.2489    13.6952 </r>
       <r>    15.0576     3.0479    14.0756 </r>
       <r>    15.1824     0.5470    14.1439 </r>
       <r>    15.3073     0.0009    14.1440 </r>
       <r>    15.4321     0.0000    14.1440 </r>
       <r>    15.5569     0.0000    14.1440 </r>
       <r>    15.6817     0.0000    14.1440 </r>
       <r>    15.8065     0.0000    14.1440 </r>
       <r>    15.9313     0.0000    14.1440 </r>
       <r>    16.0561     0.0000    14.1440 </r>
       <r>    16.1809     0.0000    14.1440 </r>
       <r>    16.3057     0.0000    14.1440 </r>
       <r>    16.4305     0.0000    14.1440 </r>
       <r>    16.5553     0.0000    14.1440 </r>
       <r>    16.6801     0.0000    14.1440 </r>
       <r>    16.8049     0.1833    14.1669 </r>
       <r>    16.9297     1.3407    14.3342 </r>
       <r>    17.0546     0.0144    14.3360 </r>
       <r>    17.1794     0.0000    14.3360 </r>
       <r>    17.3042     0.0017    14.3362 </r>
       <r>    17.4290     1.0470    14.4669 </r>
       <r>    17.5538     0.4971    14.5289 </r>
       <r>    17.6786     2.3398    14.8210 </r>
       <r>    17.8034     0.7295    14.9120 </r>
       <r>    17.9282     0.8720    15.0208 </r>
       <r>    18.0530     2.6661    15.3536 </r>
       <r>    18.1778     1.0750    15.4878 </r>
       <r>    18.3026     0.0020    15.4880 </r>
       <r>    18.4274     0.0000    15.4880 </r>
       <r>    18.5522     0.0031    15.4884 </r>
       <r>    18.6771     1.1396    15.6306 </r>
       <r>    18.8019     0.3957    15.6800 </r>
       <r>    18.9267     0.0000    15.6800 </r>
       <r>    19.0515     0.0000    15.6800 </r>
       <r>    19.1763     0.0599    15.6875 </r>
       <r>    19.3011     0.9401    15.8048 </r>
       <r>    19.4259     0.0255    15.8080 </r>
       <r>    19.5507     0.0000    15.8080 </r>
       <r>    19.6755     0.0000    15.8080 </r>
       <r>    19.8003     0.0000    15.8080 </r>
       <r>    19.9251     0.0000    15.8080 </r>
       <r>    20.0499     0.0000    15.8080 </r>
       <r>    20.1747     0.0000    15.8080 </r>
       <r>    20.2996     0.2282    15.8365 </r>
       <r>    20.4244     4.9176    16.4502 </r>
       <r>    20.5492     1.0076    16.5760 </r>
       <r>    20.6740     0.0001    16.5760 </r>
       <r>    20.7988     0.0000    16.5760 </r>
       <r>    20.9236     0.0348    16.5803 </r>
       <r>    21.0484     0.9455    16.6983 </r>
       <r>    21.1732     0.0632    16.7062 </r>
       <r>    21.2980     0.1095    16.7199 </r>
       <r>    21.4228     0.0009    16.7200 </r>
       <r>    21.5476     0.0027    16.7203 </r>
       <r>    21.6724     2.0175    16.9721 </r>
       <r>    21.7972     1.0564    17.1040 </r>
       <r>    21.9220     0.0123    17.1055 </r>
       <r>    22.0469     1.3284    17.2713 </r>
       <r>    22.1717     2.8235    17.6237 </r>
       <r>    22.2965     1.4779    17.8082 </r>
       <r>    22.4213     0.5870    17.8814 </r>
       <r>    22.5461     0.2779    17.9161 </r>
       <r>    22.6709     1.6409    18.1209 </r>
       <r>    22.7957     2.8671    18.4787 </r>
       <r>    22.9205     0.0102    18.4800 </r>
       <r>    23.0453     0.0000    18.4800 </r>
       <r>    23.1701     0.0001    18.4800 </r>
       <r>    23.2949     0.6435    18.5603 </r>
       <r>    23.4197     2.2929    18.8465 </r>
       <r>    23.5445     1.9868    19.0945 </r>
       <r>    23.6694     0.2046    19.1200 </r>
       <r>    23.7942     0.0000    19.1200 </r>
       <r>    23.9190     0.0000    19.1200 </r>
       <r>    24.0438     0.0000    19.1200 </r>
       <r>    24.1686     0.0000    19.1200 </r>
       <r>    24.2934     0.0000    19.1200 </r>
       <r>    24.4182     0.0297    19.1237 </r>
       <r>    24.5430     0.3481    19.1672 </r>
       <r>    24.6678     0.1870    19.1905 </r>
       <r>    24.7926     1.0607    19.3229 </r>
       <r>    24.9174     0.2974    19.3600 </r>
       <r>    25.0422     0.0001    19.3600 </r>
       <r>    25.1670     0.0022    19.3603 </r>
       <r>    25.2919     1.3875    19.5334 </r>
       <r>    25.4167     0.6614    19.6160 </r>
       <r>    25.5415     0.0001    19.6160 </r>
       <r>    25.6663     0.2266    19.6443 </r>
       <r>    25.7911     1.3017    19.8067 </r>
       <r>    25.9159     0.1364    19.8238 </r>
       <r>    26.0407     1.3871    19.9969 </r>
       <r>    26.1655     0.0249    20.0000 </r>
       <r>    26.2903     0.0105    20.0013 </r>
       <r>    26.4151     2.4352    20.3052 </r>
       <r>    26.5399     0.6310    20.3840 </r>
       <r>    26.6647     0.0000    20.3840 </r>
       <r>    26.7895     0.0000    20.3840 </r>
       <r>    26.9143     0.0050    20.3846 </r>
       <r>    27.0392     2.2135    20.6609 </r>
       <r>    27.1640     1.0102    20.7870 </r>
       <r>    27.2888     0.8670    20.8952 </r>
       <r>    27.4136     0.1559    20.9146 </r>
       <r>    27.5384     1.3797    21.0868 </r>
       <r>    27.6632     2.4526    21.3929 </r>
       <r>    27.7880     0.6335    21.4720 </r>
       <r>    27.9128     0.0000    21.4720 </r>
       <r>    28.0376     0.0000    21.4720 </r>
       <r>    28.1624     0.0000    21.4720 </r>
       <r>    28.2872     0.0000    21.4720 </r>
       <r>    28.4120     0.0000    21.4720 </r>
       <r>    28.5368     0.0000    21.4720 </r>
       <r>    28.6617     0.0002    21.4720 </r>
       <r>    28.7865     0.0913    21.4834 </r>
       <r>    28.9113     0.5729    21.5549 </r>
       <r>    29.0361     0.4892    21.6160 </r>
       <r>    29.1609     0.0002    21.6160 </r>
       <r>    29.2857     0.4479    21.6719 </r>
       <r>    29.4105     1.5971    21.8712 </r>
       <r>    29.5353     0.0062    21.8720 </r>
       <r>    29.6601     0.1193    21.8869 </r>
       <r>    29.7849     2.8381    22.2411 </r>
       <r>    29.9097     0.1193    22.2560 </r>
       <r>    30.0345     0.0000    22.2560 </r>
       <r>    30.1593     0.1339    22.2727 </r>
       <r>    30.2842     2.0397    22.5273 </r>
       <r>    30.4090     0.7369    22.6193 </r>
       <r>    30.5338     5.4799    23.3032 </r>
       <r>    30.6586     2.7152    23.6421 </r>
       <r>    30.7834     0.4322    23.6960 </r>
       <r>    30.9082     0.0000    23.6960 </r>
       <r>    31.0330     0.0000    23.6960 </r>
       <r>    31.1578     0.0000    23.6960 </r>
       <r>    31.2826     0.0000    23.6960 </r>
       <r>    31.4074     0.0000    23.6960 </r>
       <r>    31.5322     0.0001    23.6960 </r>
       <r>    31.6570     0.5379    23.7631 </r>
       <r>    31.7818     0.9992    23.8878 </r>
       <r>    31.9066     0.0013    23.8880 </r>
       <r>    32.0315     0.0000    23.8880 </r>
       <r>    32.1563     0.0000    23.8880 </r>
       <r>    32.2811     0.0092    23.8891 </r>
       <r>    32.4059     0.1165    23.9037 </r>
       <r>    32.5307     0.0025    23.9040 </r>
       <r>    32.6555     0.0000    23.9040 </r>
       <r>    32.7803     0.0000    23.9040 </r>
       <r>    32.9051     0.0000    23.9040 </r>
       <r>    33.0299     0.0000    23.9040 </r>
       <r>    33.1547     0.0766    23.9136 </r>
       <r>    33.2795     0.6831    23.9988 </r>
       <r>    33.4043     0.0095    24.0000 </r>
       <r>    33.5291     0.0000    24.0000 </r>
       <r>    33.6540     0.0000    24.0000 </r>
       <r>    33.7788     0.0000    24.0000 </r>
       <r>    33.9036     0.0000    24.0000 </r>
       <r>    34.0284     0.0000    24.0000 </r>
       <r>    34.1532     0.0000    24.0000 </r>
       <r>    34.2780     0.0000    24.0000 </r>
       <r>    34.4028     0.0000    24.0000 </r>
       <r>    34.5276     0.0000    24.0000 </r>
       <r>    34.6524     0.0000    24.0000 </r>
       <r>    34.7772     0.0000    24.0000 </r>
       <r>    34.9020     0.0000    24.0000 </r>
      </set>
     </set>
    </array>
   </total>
   <partial>
    <array>
     <dimension dim="1">gridpoints</dimension>
     <dimension dim="2">spin</dimension>
     <dimension dim="3">ion</dimension>
     <field>energy</field>
     <field>    s</field>
     <field>   py</field>
     <field>   pz</field>
     <field>   px</field>
     <field>  dxy</field>
     <field>  dyz</field>
     <field>  dz2</field>
     <field>  dxz</field>
     <field>x2-y2</field>
     <set>
      <set comment="ion 1">
       <set comment="spin 1">
        <r>    -2.5402     0.0000     0.0000     0.0000     0.0000     0.0000     0.0000     0.0000     0.0000     0.0000 </r>
        <r>    -2.4154     0.0000     0.0000     0.0000     0.0000     0.0000     0.0000     0.0000     0.0000     0.0000 </r>
        <r>    -2.2906     0.0000     0.0000     0.0000     0.0000     0.0000     0.0000     0.0000     0.0000     0.0000 </r>
        <r>    -2.1658     0.0000     0.0000     0.0000     0.0000     0.0000     0.0000     0.0000     0.0000     0.0000 </r>
        <r>    -2.0410     0.0000     0.0000     0.0000     0.0000     0.0000     0.0000     0.0000     0.0000     0.0000 </r>
        <r>    -1.9162     0.0000     0.0000     0.0000     0.0000     0.0000     0.0000     0.0000     0.0000     0.0000 </r>
        <r>    -1.7914     0.0000     0.0000     0.0000     0.0000     0.0000     0.0000     0.0000     0.0000     0.0000 </r>
        <r>    -1.6666     0.0000     0.0000     0.0000     0.0000     0.0000     0.0000     0.0000     0.0000     0.0000 </r>
        <r>    -1.5418     0.0000     0.0000     0.0000     0.0000     0.0000     0.0000     0.0000     0.0000     0.0000 </r>
        <r>    -1.4170     0.0000     0.0000     0.0000     0.0000     0.0000     0.0000     0.0000     0.0000     0.0000 </r>
        <r>    -1.2921     0.0000     0.0000     0.0000     0.0000     0.0000     0.0000     0.0000     0.0000     0.0000 </r>
        <r>    -1.1673     0.0000     0.0000     0.0000     0.0000     0.0000     0.0000     0.0000     0.0000     0.0000 </r>
        <r>    -1.0425     0.0000     0.0000     0.0000     0.0000     0.0000     0.0000     0.0000     0.0000     0.0000 </r>
        <r>    -0.9177     0.0010     0.0000     0.0000     0.0000     0.0000     0.0000     0.0000     0.0000     0.0000 </r>
        <r>    -0.7929     0.0687     0.0000     0.0000     0.0000     0.0000     0.0000     0.0000     0.0000     0.0000 </r>
        <r>    -0.6681     0.0077     0.0000     0.0000     0.0000     0.0000     0.0000     0.0000     0.0000     0.0000 </r>
        <r>    -0.5433     0.0000     0.0000     0.0000     0.0000     0.0000     0.0000     0.0000     0.0000     0.0000 </r>
        <r>    -0.4185     0.0000     0.0000     0.0000     0.0000     0.0000     0.0000     0.0000     0.0000     0.0000 </r>
        <r>    -0.2937     0.0000     0.0000     0.0000     0.0000     0.0000     0.0000     0.0000     0.0000     0.0000 </r>
        <r>    -0.1689     0.0000     0.0000     0.0000     0.0000     0.0000     0.0000     0.0000     0.0000     0.0000 </r>
        <r>    -0.0441     0.0000     0.0000     0.0000     0.0000     0.0000     0.0000     0.0000     0.0000     0.0000 </r>
        <r>     0.0807     0.0000     0.0000     0.0000     0.0000     0.0000     0.0000     0.0000     0.0000     0.0000 </r>
        <r>     0.2055     0.0199     0.0005     0.0005     0.0005     0.0001     0.0001     0.0003     0.0002     0.0003 </r>
        <r>     0.3304     0.5107     0.0136     0.0136     0.0136     0.0031     0.0031     0.0069     0.0061     0.0084 </r>
        <r>     0.4552     0.0232     0.0006     0.0006     0.0006     0.0001     0.0001     0.0003     0.0003     0.0004 </r>
        <r>     0.5800     0.0062     0.0003     0.0003     0.0003     0.0001     0.0001     0.0000     0.0001     0.0000 </r>
        <r>     0.7048     0.3570     0.0146     0.0146     0.0146     0.0070     0.0070     0.0026     0.0035     0.0009 </r>
        <r>     0.8296     0.0333     0.0014     0.0014     0.0014     0.0007     0.0007     0.0002     0.0003     0.0001 </r>
        <r>     0.9544     0.0000     0.0000     0.0000     0.0000     0.0000     0.0000     0.0000     0.0000     0.0000 </r>
        <r>     1.0792     0.0000     0.0000     0.0000     0.0000     0.0000     0.0000     0.0000     0.0000     0.0000 </r>
        <r>     1.2040     0.0000     0.0000     0.0000     0.0000     0.0000     0.0000     0.0000     0.0000     0.0000 </r>
        <r>     1.3288     0.0000     0.0000     0.0000     0.0000     0.0000     0.0000     0.0000     0.0000     0.0000 </r>
        <r>     1.4536     0.0000     0.0000     0.0000     0.0000     0.0000     0.0000     0.0000     0.0000     0.0000 </r>
        <r>     1.5784     0.0111     0.0002     0.0002     0.0002     0.0025     0.0025     0.0056     0.0050     0.0068 </r>
        <r>     1.7032     0.2377     0.0040     0.0040     0.0040     0.0529     0.0529     0.1190     0.1058     0.1454 </r>
        <r>     1.8280     0.5118     0.0369     0.0369     0.0369     0.0239     0.0239     0.0482     0.0433     0.0579 </r>
        <r>     1.9528     0.1278     0.0093     0.0093     0.0093     0.0056     0.0056     0.0111     0.0100     0.0133 </r>
        <r>     2.0777     0.0139     0.0007     0.0007     0.0007     0.0263     0.0263     0.0102     0.0134     0.0038 </r>
        <r>     2.2025     0.6400     0.0477     0.0477     0.0477     0.3207     0.3207     0.2530     0.2666     0.2259 </r>
        <r>     2.3273     0.1950     0.0151     0.0151     0.0151     0.0633     0.0633     0.0692     0.0680     0.0716 </r>
        <r>     2.4521     0.1887     0.0092     0.0092     0.0092     0.3451     0.3450     0.3679     0.3634     0.3771 </r>
        <r>     2.5769     0.2963     0.0192     0.0192     0.0192     0.2647     0.2647     0.4924     0.4468     0.5834 </r>
        <r>     2.7017     0.0005     0.0000     0.0000     0.0000     0.0005     0.0005     0.0010     0.0009     0.0012 </r>
        <r>     2.8265     0.0019     0.0114     0.0114     0.0114     0.1340     0.1340     0.1580     0.1532     0.1676 </r>
        <r>     2.9513     0.0024     0.0079     0.0079     0.0079     0.0951     0.0951     0.1051     0.1031     0.1091 </r>
        <r>     3.0761     0.0857     0.0399     0.0399     0.0399     0.6586     0.6586     0.2497     0.3315     0.0862 </r>
        <r>     3.2009     0.0099     0.0122     0.0122     0.0122     0.1289     0.1289     0.1481     0.1442     0.1557 </r>
        <r>     3.3257     0.0227     0.0465     0.0465     0.0465     0.3307     0.3307     0.6545     0.5897     0.7840 </r>
        <r>     3.4505     0.0623     0.0387     0.0387     0.0387     0.3547     0.3547     0.5522     0.5127     0.6312 </r>
        <r>     3.5753     0.0003     0.0148     0.0148     0.0148     0.1657     0.1657     0.3246     0.2928     0.3882 </r>
        <r>     3.7002     0.0124     0.0239     0.0239     0.0239     0.6777     0.6777     0.4125     0.4656     0.3065 </r>
        <r>     3.8250     0.1770     0.0564     0.0564     0.0564     0.3531     0.3531     0.6004     0.5510     0.6993 </r>
[...]
       </set>
       <set comment="band 5">
        <r>  0.0000  0.0018  0.0027  0.0009  0.0178  0.1543  0.0293  0.3086  0.4548 </r>
       </set>
       <set comment="band 6">
        <r>  0.3173  0.0202  0.0059  0.1117  0.0133  0.0313  0.0209  0.1014  0.1805 </r>
       </set>
       <set comment="band 7">
        <r>  0.3036  0.0062  0.0488  0.2438  0.0009  0.0376  0.0011  0.0485  0.0069 </r>
       </set>
       <set comment="band 8">
        <r>  0.0000  0.1646  0.2470  0.0823  0.0570  0.0077  0.1193  0.0154  0.0059 </r>
       </set>
       <set comment="band 9">
        <r>  0.0147  0.2188  0.0979  0.0143  0.1946  0.0413  0.0577  0.0013  0.0000 </r>
       </set>
       <set comment="band 10">
        <r>  0.0160  0.1465  0.1237  0.0046  0.0227  0.0152  0.0047  0.0031  0.0050 </r>
       </set>
       <set comment="band 11">
        <r>  0.0000  0.0082  0.0124  0.0041  0.0664  0.0005  0.2461  0.0009  0.0170 </r>
       </set>
       <set comment="band 12">
        <r>  0.0911  0.0152  0.0201  0.0051  0.0426  0.1617  0.0328  0.0019  0.1272 </r>
       </set>
      </set>
      <set comment="kpoint 53">
       <set comment="band 1">
        <r>  0.0314  0.0276  0.0059  0.0104  0.0241  0.4918  0.0111  0.1895  0.0115 </r>
       </set>
       <set comment="band 2">
        <r>  0.0000  0.0131  0.0197  0.0066  0.0186  0.1329  0.0185  0.2658  0.3863 </r>
       </set>
       <set comment="band 3">
        <r>  0.0608  0.0183  0.0275  0.0092  0.0023  0.0189  0.0075  0.3571  0.3419 </r>
       </set>
       <set comment="band 4">
        <r>  0.0028  0.0117  0.0084  0.0000  0.6314  0.0516  0.2087  0.0003  0.0159 </r>
       </set>
       <set comment="band 5">
        <r>  0.0000  0.0018  0.0027  0.0009  0.2502  0.0065  0.6943  0.0130  0.0008 </r>
       </set>
       <set comment="band 6">
        <r>  0.3173  0.0717  0.0630  0.0031  0.0009  0.1847  0.0030  0.0195  0.1393 </r>
       </set>
       <set comment="band 7">
        <r>  0.3036  0.1930  0.1007  0.0052  0.0391  0.0408  0.0115  0.0036  0.0000 </r>
       </set>
       <set comment="band 8">
        <r>  0.0000  0.1647  0.2469  0.0823  0.0001  0.0265  0.0346  0.0530  0.0910 </r>
       </set>
       <set comment="band 9">
        <r>  0.0147  0.0019  0.0676  0.2615  0.0203  0.0986  0.0033  0.1617  0.0111 </r>
       </set>
       <set comment="band 10">
        <r>  0.0160  0.0367  0.0137  0.2244  0.0022  0.0033  0.0000  0.0337  0.0116 </r>
       </set>
       <set comment="band 11">
        <r>  0.0000  0.0082  0.0124  0.0041  0.0255  0.0547  0.0021  0.1093  0.1392 </r>
       </set>
       <set comment="band 12">
        <r>  0.0911  0.0117  0.0001  0.0285  0.0746  0.0821  0.0492  0.0156  0.1446 </r>
       </set>
      </set>
      <set comment="kpoint 54">
       <set comment="band 1">
        <r>  0.0314  0.0017  0.0414  0.0008  0.2151  0.2353  0.1330  0.1177  0.0269 </r>
       </set>
       <set comment="band 2">
        <r>  0.0000  0.0132  0.0000  0.0263  0.0301  0.1838  0.0000  0.3675  0.2407 </r>
       </set>
       <set comment="band 3">
        <r>  0.0608  0.0183  0.0274  0.0092  0.3761  0.0007  0.3035  0.0004  0.0470 </r>
       </set>
       <set comment="band 4">
        <r>  0.0028  0.0018  0.0175  0.0009  0.1595  0.3302  0.2332  0.1651  0.0199 </r>
       </set>
       <set comment="band 5">
        <r>  0.0000  0.0018  0.0000  0.0036  0.0747  0.0974  0.0000  0.1948  0.5980 </r>
       </set>
       <set comment="band 6">
        <r>  0.3173  0.0202  0.1076  0.0101  0.0091  0.0355  0.2840  0.0178  0.0011 </r>
       </set>
       <set comment="band 7">
        <r>  0.3036  0.0062  0.2895  0.0031  0.0336  0.0049  0.0498  0.0025  0.0042 </r>
       </set>
       <set comment="band 8">
        <r>  0.0000  0.1647  0.0000  0.3293  0.0019  0.0628  0.0000  0.1255  0.0150 </r>
       </set>
       <set comment="band 9">
        <r>  0.0147  0.2187  0.0028  0.1094  0.1574  0.0786  0.0000  0.0393  0.0197 </r>
       </set>
       <set comment="band 10">
        <r>  0.0160  0.1465  0.0550  0.0732  0.0331  0.0047  0.0063  0.0024  0.0041 </r>
       </set>
       <set comment="band 11">
        <r>  0.0000  0.0082  0.0000  0.0165  0.0217  0.0451  0.0000  0.0903  0.1738 </r>
       </set>
       <set comment="band 12">
        <r>  0.0911  0.0152  0.0175  0.0076  0.0600  0.1443  0.0822  0.0722  0.0075 </r>
       </set>
      </set>
      <set comment="kpoint 55">
       <set comment="band 1">
        <r>  0.0314  0.0017  0.0160  0.0262  0.4252  0.0253  0.1675  0.0299  0.0800 </r>
       </set>
       <set comment="band 2">
        <r>  0.0000  0.0131  0.0197  0.0066  0.2097  0.0041  0.5981  0.0082  0.0019 </r>
       </set>
       <set comment="band 3">
        <r>  0.0608  0.0183  0.0000  0.0366  0.0802  0.2966  0.0033  0.0959  0.2517 </r>
       </set>
       <set comment="band 4">
        <r>  0.0028  0.0018  0.0016  0.0168  0.0888  0.4009  0.0233  0.3925  0.0025 </r>
       </set>
       <set comment="band 5">
        <r>  0.0000  0.0018  0.0027  0.0009  0.0178  0.1543  0.0293  0.3086  0.4548 </r>
       </set>
       <set comment="band 6">
        <r>  0.3173  0.0202  0.0059  0.1117  0.0133  0.0313  0.0209  0.1014  0.1805 </r>
       </set>
       <set comment="band 7">
        <r>  0.3037  0.0062  0.0488  0.2438  0.0009  0.0376  0.0011  0.0485  0.0069 </r>
       </set>
       <set comment="band 8">
        <r>  0.0000  0.1646  0.2470  0.0823  0.0570  0.0077  0.1193  0.0154  0.0059 </r>
       </set>
       <set comment="band 9">
        <r>  0.0147  0.2187  0.0979  0.0143  0.1946  0.0413  0.0577  0.0013  0.0000 </r>
       </set>
       <set comment="band 10">
        <r>  0.0160  0.1465  0.1237  0.0046  0.0227  0.0152  0.0047  0.0031  0.0050 </r>
       </set>
       <set comment="band 11">
        <r>  0.0000  0.0082  0.0123  0.0041  0.0664  0.0005  0.2461  0.0009  0.0170 </r>
       </set>
       <set comment="band 12">
        <r>  0.0911  0.0152  0.0201  0.0051  0.0427  0.1617  0.0328  0.0019  0.1272 </r>
       </set>
      </set>
      <set comment="kpoint 56">
       <set comment="band 1">
        <r>  0.0314  0.0017  0.0059  0.0364  0.0354  0.4150  0.0111  0.2663  0.0002 </r>
       </set>
       <set comment="band 2">
        <r>  0.0000  0.0132  0.0197  0.0066  0.0810  0.1329  0.0185  0.2658  0.3239 </r>
       </set>
       <set comment="band 3">
        <r>  0.0608  0.0183  0.0275  0.0091  0.1089  0.2679  0.0075  0.1082  0.2353 </r>
       </set>
       <set comment="band 4">
        <r>  0.0028  0.0018  0.0084  0.0100  0.4862  0.0034  0.2087  0.0485  0.1611 </r>
       </set>
       <set comment="band 5">
        <r>  0.0000  0.0018  0.0027  0.0009  0.1656  0.0065  0.6943  0.0130  0.0854 </r>
       </set>
       <set comment="band 6">
        <r>  0.3173  0.0202  0.0630  0.0547  0.0445  0.0001  0.0030  0.2040  0.0958 </r>
       </set>
       <set comment="band 7">
        <r>  0.3036  0.0062  0.1007  0.1920  0.0233  0.0153  0.0115  0.0291  0.0159 </r>
       </set>
       <set comment="band 8">
        <r>  0.0000  0.1647  0.2469  0.0823  0.0381  0.0265  0.0346  0.0530  0.0529 </r>
       </set>
       <set comment="band 9">
        <r>  0.0147  0.2187  0.0676  0.0446  0.0020  0.2340  0.0033  0.0262  0.0295 </r>
       </set>
       <set comment="band 10">
        <r>  0.0160  0.1465  0.0137  0.1146  0.0010  0.0369  0.0000  0.0001  0.0127 </r>
       </set>
       <set comment="band 11">
        <r>  0.0000  0.0082  0.0124  0.0041  0.0122  0.0547  0.0021  0.1094  0.1526 </r>
       </set>
       <set comment="band 12">
        <r>  0.0911  0.0152  0.0001  0.0250  0.2038  0.0005  0.0492  0.0972  0.0154 </r>
       </set>
      </set>
      <set comment="kpoint 57">
       <set comment="band 1">
        <r>  0.0314  0.0276  0.0025  0.0138  0.2805  0.2354  0.0594  0.1177  0.0350 </r>
       </set>
       <set comment="band 2">
        <r>  0.0000  0.0131  0.0000  0.0263  0.0612  0.0902  0.0000  0.1806  0.4901 </r>
       </set>
       <set comment="band 3">
        <r>  0.0608  0.0183  0.0275  0.0091  0.0205  0.0007  0.7036  0.0004  0.0026 </r>
       </set>
       <set comment="band 4">
        <r>  0.0028  0.0117  0.0026  0.0058  0.3528  0.3302  0.0157  0.1651  0.0441 </r>
       </set>
       <set comment="band 5">
        <r>  0.0000  0.0018  0.0000  0.0036  0.0325  0.2242  0.0000  0.4485  0.2597 </r>
       </set>
       <set comment="band 6">
        <r>  0.3173  0.0717  0.0303  0.0359  0.1501  0.0355  0.1254  0.0178  0.0188 </r>
       </set>
       <set comment="band 7">
        <r>  0.3037  0.1930  0.0093  0.0965  0.0749  0.0049  0.0032  0.0025  0.0094 </r>
       </set>
       <set comment="band 8">
        <r>  0.0000  0.1647  0.0000  0.3293  0.0209  0.0056  0.0000  0.0113  0.1674 </r>
       </set>
       <set comment="band 9">
        <r>  0.0147  0.0019  0.3281  0.0009  0.0403  0.0786  0.1317  0.0393  0.0050 </r>
       </set>
       <set comment="band 10">
        <r>  0.0160  0.0367  0.2198  0.0184  0.0007  0.0047  0.0428  0.0024  0.0001 </r>
       </set>
       <set comment="band 11">
        <r>  0.0000  0.0082  0.0000  0.0165  0.0150  0.0651  0.0000  0.1303  0.1203 </r>
       </set>
       <set comment="band 12">
        <r>  0.0911  0.0117  0.0228  0.0058  0.0125  0.1443  0.1357  0.0722  0.0016 </r>
       </set>
      </set>
      <set comment="kpoint 58">
       <set comment="band 1">
        <r>  0.0314  0.0276  0.0160  0.0002  0.4692  0.0467  0.1675  0.0085  0.0360 </r>
       </set>
       <set comment="band 2">
        <r>  0.0000  0.0131  0.0197  0.0066  0.1474  0.0041  0.5981  0.0082  0.0643 </r>
       </set>
       <set comment="band 3">
        <r>  0.0608  0.0183  0.0000  0.0366  0.0090  0.0122  0.0033  0.3804  0.3228 </r>
       </set>
       <set comment="band 4">
        <r>  0.0028  0.0117  0.0016  0.0068  0.0402  0.6427  0.0233  0.1506  0.0510 </r>
       </set>
       <set comment="band 5">
        <r>  0.0000  0.0018  0.0027  0.0009  0.1024  0.1543  0.0293  0.3086  0.3702 </r>
       </set>
       <set comment="band 6">
        <r>  0.3173  0.0717  0.0059  0.0602  0.1274  0.0582  0.0209  0.0745  0.0665 </r>
       </set>
       <set comment="band 7">
        <r>  0.3037  0.1930  0.0488  0.0570  0.0058  0.0741  0.0011  0.0120  0.0020 </r>
       </set>
       <set comment="band 8">
        <r>  0.0000  0.1647  0.2470  0.0823  0.0189  0.0077  0.1193  0.0154  0.0440 </r>
       </set>
       <set comment="band 9">
        <r>  0.0147  0.0019  0.0979  0.2312  0.1178  0.0011  0.0577  0.0415  0.0769 </r>
       </set>
       <set comment="band 10">
        <r>  0.0160  0.0367  0.1237  0.1144  0.0053  0.0001  0.0047  0.0182  0.0224 </r>
       </set>
       <set comment="band 11">
        <r>  0.0000  0.0082  0.0123  0.0041  0.0797  0.0005  0.2461  0.0009  0.0037 </r>
       </set>
       <set comment="band 12">
        <r>  0.0911  0.0117  0.0201  0.0086  0.1481  0.0087  0.0328  0.1548  0.0218 </r>
       </set>
      </set>
      <set comment="kpoint 59">
       <set comment="band 1">
        <r>  0.0314  0.0017  0.0059  0.0364  0.0354  0.4151  0.0111  0.2662  0.0002 </r>
       </set>
       <set comment="band 2">
        <r>  0.0000  0.0131  0.0197  0.0066  0.0809  0.1329  0.0185  0.2659  0.3239 </r>
       </set>
       <set comment="band 3">
        <r>  0.0608  0.0183  0.0275  0.0091  0.1089  0.2679  0.0075  0.1082  0.2353 </r>
       </set>
       <set comment="band 4">
        <r>  0.0028  0.0018  0.0084  0.0100  0.4862  0.0034  0.2087  0.0485  0.1611 </r>
       </set>
       <set comment="band 5">
        <r>  0.0000  0.0018  0.0027  0.0009  0.1656  0.0065  0.6943  0.0130  0.0854 </r>
       </set>
       <set comment="band 6">
        <r>  0.3173  0.0202  0.0630  0.0547  0.0445  0.0001  0.0030  0.2040  0.0958 </r>
       </set>
       <set comment="band 7">
        <r>  0.3037  0.0062  0.1006  0.1920  0.0233  0.0153  0.0115  0.0291  0.0159 </r>
       </set>
       <set comment="band 8">
        <r>  0.0000  0.1646  0.2470  0.0823  0.0381  0.0265  0.0346  0.0530  0.0529 </r>
       </set>
       <set comment="band 9">
        <r>  0.0147  0.2187  0.0676  0.0446  0.0020  0.2340  0.0033  0.0262  0.0295 </r>
       </set>
       <set comment="band 10">
        <r>  0.0160  0.1465  0.0137  0.1146  0.0010  0.0369  0.0000  0.0001  0.0127 </r>
       </set>
       <set comment="band 11">
        <r>  0.0000  0.0082  0.0123  0.0041  0.0122  0.0547  0.0021  0.1094  0.1526 </r>
       </set>
       <set comment="band 12">
        <r>  0.0911  0.0152  0.0001  0.0250  0.2038  0.0005  0.0492  0.0972  0.0154 </r>
       </set>
      </set>
      <set comment="kpoint 60">
       <set comment="band 1">
        <r>  0.0314  0.0276  0.0161  0.0002  0.4692  0.0467  0.1676  0.0085  0.0360 </r>
       </set>
       <set comment="band 2">
        <r>  0.0000  0.0131  0.0197  0.0066  0.1474  0.0041  0.5981  0.0082  0.0643 </r>
       </set>
       <set comment="band 3">
        <r>  0.0608  0.0183  0.0000  0.0366  0.0090  0.0122  0.0033  0.3804  0.3228 </r>
       </set>
       <set comment="band 4">
        <r>  0.0028  0.0117  0.0016  0.0068  0.0402  0.6427  0.0233  0.1506  0.0510 </r>
       </set>
       <set comment="band 5">
        <r>  0.0000  0.0018  0.0027  0.0009  0.1024  0.1543  0.0293  0.3086  0.3702 </r>
       </set>
       <set comment="band 6">
        <r>  0.3173  0.0717  0.0059  0.0602  0.1274  0.0582  0.0209  0.0745  0.0665 </r>
       </set>
       <set comment="band 7">
        <r>  0.3036  0.1930  0.0488  0.0570  0.0058  0.0741  0.0011  0.0120  0.0020 </r>
       </set>
       <set comment="band 8">
        <r>  0.0000  0.1647  0.2470  0.0823  0.0189  0.0077  0.1193  0.0154  0.0440 </r>
       </set>
       <set comment="band 9">
        <r>  0.0147  0.0019  0.0979  0.2312  0.1178  0.0011  0.0577  0.0415  0.0769 </r>
       </set>
       <set comment="band 10">
        <r>  0.0160  0.0367  0.1237  0.1144  0.0053  0.0001  0.0047  0.0182  0.0224 </r>
       </set>
       <set comment="band 11">
        <r>  0.0000  0.0082  0.0123  0.0041  0.0797  0.0005  0.2461  0.0009  0.0037 </r>
       </set>
       <set comment="band 12">
        <r>  0.0911  0.0117  0.0201  0.0086  0.1481  0.0087  0.0328  0.1548  0.0218 </r>
       </set>
      </set>
      <set comment="kpoint 61">
       <set comment="band 1">
        <r>  0.0314  0.0276  0.0059  0.0104  0.0241  0.4917  0.0111  0.1896  0.0115 </r>
       </set>
       <set comment="band 2">
        <r>  0.0000  0.0132  0.0197  0.0066  0.0186  0.1329  0.0185  0.2658  0.3863 </r>
       </set>
       <set comment="band 3">
        <r>  0.0608  0.0183  0.0275  0.0092  0.0023  0.0189  0.0075  0.3572  0.3419 </r>
       </set>
       <set comment="band 4">
        <r>  0.0028  0.0117  0.0084  0.0000  0.6314  0.0516  0.2087  0.0003  0.0159 </r>
       </set>
       <set comment="band 5">
        <r>  0.0000  0.0018  0.0027  0.0009  0.2502  0.0065  0.6943  0.0130  0.0008 </r>
       </set>
       <set comment="band 6">
        <r>  0.3173  0.0717  0.0630  0.0031  0.0009  0.1847  0.0030  0.0195  0.1393 </r>
       </set>
       <set comment="band 7">
        <r>  0.3037  0.1930  0.1006  0.0052  0.0391  0.0408  0.0115  0.0036  0.0000 </r>
       </set>
       <set comment="band 8">
        <r>  0.0000  0.1646  0.2470  0.0823  0.0001  0.0265  0.0346  0.0530  0.0910 </r>
       </set>
       <set comment="band 9">
        <r>  0.0147  0.0019  0.0676  0.2615  0.0203  0.0986  0.0033  0.1617  0.0111 </r>
       </set>
       <set comment="band 10">
        <r>  0.0160  0.0367  0.0137  0.2244  0.0022  0.0033  0.0000  0.0336  0.0116 </r>
       </set>
       <set comment="band 11">
        <r>  0.0000  0.0082  0.0123  0.0041  0.0255  0.0547  0.0021  0.1094  0.1392 </r>
       </set>
       <set comment="band 12">
        <r>  0.0911  0.0117  0.0001  0.0285  0.0746  0.0821  0.0492  0.0156  0.1446 </r>
       </set>
      </set>
      <set comment="kpoint 62">
       <set comment="band 1">
        <r>  0.0314  0.0276  0.0025  0.0138  0.2805  0.2353  0.0594  0.1177  0.0351 </r>
       </set>
       <set comment="band 2">
        <r>  0.0000  0.0132  0.0000  0.0263  0.0613  0.0903  0.0000  0.1805  0.4900 </r>
       </set>
       <set comment="band 3">
        <r>  0.0608  0.0183  0.0275  0.0091  0.0205  0.0007  0.7036  0.0004  0.0026 </r>
       </set>
       <set comment="band 4">
        <r>  0.0028  0.0117  0.0026  0.0058  0.3528  0.3302  0.0157  0.1651  0.0441 </r>
       </set>
       <set comment="band 5">
        <r>  0.0000  0.0018  0.0000  0.0036  0.0325  0.2242  0.0000  0.4485  0.2597 </r>
       </set>
       <set comment="band 6">
        <r>  0.3173  0.0717  0.0303  0.0359  0.1501  0.0355  0.1254  0.0178  0.0188 </r>
       </set>
       <set comment="band 7">
        <r>  0.3037  0.1930  0.0093  0.0965  0.0749  0.0049  0.0032  0.0025  0.0094 </r>
       </set>
       <set comment="band 8">
        <r>  0.0000  0.1646  0.0000  0.3293  0.0209  0.0056  0.0000  0.0113  0.1674 </r>
       </set>
       <set comment="band 9">
        <r>  0.0147  0.0019  0.3281  0.0009  0.0403  0.0786  0.1317  0.0393  0.0050 </r>
       </set>
       <set comment="band 10">
        <r>  0.0160  0.0367  0.2198  0.0183  0.0007  0.0047  0.0428  0.0024  0.0001 </r>
       </set>
       <set comment="band 11">
        <r>  0.0000  0.0082  0.0000  0.0165  0.0150  0.0652  0.0000  0.1303  0.1203 </r>
       </set>
       <set comment="band 12">
        <r>  0.0911  0.0117  0.0228  0.0058  0.0125  0.1443  0.1357  0.0722  0.0016 </r>
       </set>
      </set>
      <set comment="kpoint 63">
       <set comment="band 1">
        <r>  0.0314  0.0017  0.0414  0.0008  0.2151  0.2354  0.1330  0.1177  0.0269 </r>
       </set>
       <set comment="band 2">
        <r>  0.0000  0.0132  0.0000  0.0263  0.0301  0.1838  0.0000  0.3676  0.2407 </r>
       </set>
       <set comment="band 3">
        <r>  0.0608  0.0183  0.0274  0.0092  0.3761  0.0007  0.3035  0.0004  0.0470 </r>
       </set>
       <set comment="band 4">
        <r>  0.0028  0.0018  0.0175  0.0009  0.1595  0.3302  0.2332  0.1651  0.0199 </r>
       </set>
       <set comment="band 5">
        <r>  0.0000  0.0018  0.0000  0.0036  0.0747  0.0974  0.0000  0.1948  0.5980 </r>
       </set>
       <set comment="band 6">
        <r>  0.3173  0.0202  0.1076  0.0101  0.0091  0.0355  0.2840  0.0178  0.0011 </r>
       </set>
       <set comment="band 7">
        <r>  0.3036  0.0062  0.2895  0.0031  0.0336  0.0049  0.0498  0.0025  0.0042 </r>
       </set>
       <set comment="band 8">
        <r>  0.0000  0.1646  0.0000  0.3293  0.0019  0.0628  0.0000  0.1255  0.0150 </r>
       </set>
       <set comment="band 9">
        <r>  0.0147  0.2188  0.0028  0.1094  0.1574  0.0786  0.0000  0.0393  0.0197 </r>
       </set>
       <set comment="band 10">
        <r>  0.0160  0.1465  0.0550  0.0733  0.0331  0.0047  0.0063  0.0024  0.0041 </r>
       </set>
       <set comment="band 11">
        <r>  0.0000  0.0082  0.0000  0.0165  0.0217  0.0451  0.0000  0.0903  0.1737 </r>
       </set>
       <set comment="band 12">
        <r>  0.0911  0.0152  0.0175  0.0076  0.0600  0.1443  0.0822  0.0722  0.0075 </r>
       </set>
      </set>
     </set>
    </set>
   </array>
  </projected>
 </calculation>
 <structure name="finalpos" >
  <crystal>
   <varray name="basis" >
    <v>       2.66860800       0.00000500       1.54073700 </v>
    <v>       0.88954200       2.51598500       1.54073700 </v>
    <v>       0.00000700       0.00000500       3.08145000 </v>
   </varray>
   <i name="volume">     20.68934832 </i>
   <varray name="rec_basis" >
    <v>       0.37472781      -0.13248694      -0.00000064 </v>
    <v>      -0.00000037       0.39745918      -0.00000064 </v>
    <v>      -0.18736518      -0.13248715       0.32452319 </v>
   </varray>
  </crystal>
  <varray name="positions" >
   <v>       0.00000000       0.00000000       0.00000000 </v>
  </varray>
 </structure>
</modeling>
