 vasp.6.2.0 18Jan21 (build Feb  1 2022 01:28:57) complex                         
 executed on             LinuxPGI date 2022.05.17  01:31:15
 running on   16 total cores
 distrk:  each k-point on   16 cores,    1 groups
 distr:  one band on NCORE=   4 cores,    4 groups


--------------------------------------------------------------------------------------------------------


 INCAR:
   ALGO = 38
   AMIN = 0.01
   AMIX = 0.2
   BMIX = 0.001
   EDIFF = 1e-06
   EDIFFG = -0.03
   ENCUT = 420
   GGA = Rp
   IBRION = 2
   ISIF = 0
   ISMEAR = 0
   ISPIN = 1
   ISYM = 0
   LASPH = False
   LORBIT = 11
   LREAL = True
   LVTOT = False
   LWAVE = False
   NCORE = 4
   NELM = 80
   NELMIN = 8
   NSW = 300
   PREC = Normal
   SIGMA = 0.05
   SYMPREC = 1e-05

 POTCAR:    PAW_PBE Pt 04Feb2005                  
 POTCAR:    PAW_PBE Pt 04Feb2005                  
   SHA256 =  3ed90460adef76debcff1cfb73ee1349b515b1a3db03439735b44de3a8db7dc8 Pt/POTCAR             
   COPYR  = (c) Copyright 04Feb2005 Georg Kresse                                                    
   COPYR  = This file is part of the software VASP. Any use, copying, and all other rights are regul
   COPYR  = If you do not have a valid VASP license, you may not use, copy or distribute this file. 
   VRHFIN =Pt: s1d9                                                                                 
   LEXCH  = PE                                                                                      
   EATOM  =   729.1176 eV,   53.5886 Ry                                                             
                                                                                                    
   TITEL  = PAW_PBE Pt 04Feb2005                                                                    
   LULTRA =        F    use ultrasoft PP ?                                                          
   IUNSCR =        1    unscreen: 0-lin 1-nonlin 2-no                                               
   RPACOR =    2.330    partial core radius                                                         
   POMASS =  195.080; ZVAL   =   10.000    mass and valenz                                          
   RCORE  =    2.600    outmost cutoff radius                                                       
   RWIGS  =    2.750; RWIGS  =    1.455    wigner-seitz radius (au A)                               
   ENMAX  =  230.283; ENMIN  =  172.712 eV                                                          
   ICORE  =        3    local potential                                                             
   LCOR   =        T    correct aug charges                                                         
   LPAW   =        T    paw PP                                                                      
   EAUG   =  358.966                                                                                
   DEXC   =    0.000                                                                                
   RMAX   =    2.658    core radius for proj-oper                                                   
   RAUG   =    1.300    factor for augmentation sphere                                              
   RDEP   =    2.761    radius for radial grids                                                     
   RDEPT  =    2.203    core radius for aug-charge                                                  
                                                                                                    
   Atomic configuration                                                                             
   16 entries                                                                                       
     n  l   j            E        occ.                                                              
     1  0  0.50    -78401.1885   2.0000                                                             
     2  0  0.50    -13770.7750   2.0000                                                             
     2  1  1.50    -11931.0468   6.0000                                                             
     3  0  0.50     -3234.7234   2.0000                                                             
     3  1  1.50     -2699.2216   6.0000                                                             
     3  2  2.50     -2119.5714  10.0000                                                             
     4  0  0.50      -695.1528   2.0000                                                             
     4  1  1.50      -519.6034   6.0000                                                             
     4  2  2.50      -306.6786  10.0000                                                             
     4  3  3.50       -70.1041  14.0000                                                             
     5  0  0.50      -101.7747   2.0000                                                             
     5  1  1.50       -55.9873   6.0000                                                             
     5  2  2.50        -6.1423   9.0000                                                             
     6  0  0.50        -5.6573   1.0000                                                             
     6  1  1.50        -6.8029   0.0000                                                             
     5  3  2.50        -1.3606   0.0000                                                             
   Description                                                                                      
     l       E           TYP  RCUT    TYP  RCUT                                                     
     2     -6.1423404     23  2.500                                                                 
     2     -7.5029230     23  2.500                                                                 
     0     -5.6573207     23  2.500                                                                 
     0      0.7416693     23  2.500                                                                 
     1     -2.7211652     23  2.600                                                                 
     1     20.4087390     23  2.600                                                                 
     3     -1.3605826     23  2.500                                                                 
  local pseudopotential read in
  partial core-charges read in
  partial kinetic energy density read in
  atomic valenz-charges read in
  non local Contribution for L=            2  read in
    real space projection operators read in
  non local Contribution for L=            2  read in
    real space projection operators read in
  non local Contribution for L=            0  read in
    real space projection operators read in
  non local Contribution for L=            0  read in
    real space projection operators read in
  non local Contribution for L=            1  read in
    real space projection operators read in
  non local Contribution for L=            1  read in
    real space projection operators read in
    PAW grid and wavefunctions read in
 
   number of l-projection  operators is LMAX  =            6
   number of lm-projection operators is LMMAX =           18
 
 -----------------------------------------------------------------------------
|                                                                             |
|           W    W    AA    RRRRR   N    N  II  N    N   GGGG   !!!           |
|           W    W   A  A   R    R  NN   N  II  NN   N  G    G  !!!           |
|           W    W  A    A  R    R  N N  N  II  N N  N  G       !!!           |
|           W WW W  AAAAAA  RRRRR   N  N N  II  N  N N  G  GGG   !            |
|           WW  WW  A    A  R   R   N   NN  II  N   NN  G    G                |
|           W    W  A    A  R    R  N    N  II  N    N   GGGG   !!!           |
|                                                                             |
|     The real-space projection scheme for the treatment of the non-local     |
|     pseudopotentials has been switched on but on file POTCAR I have not     |
|     found any entries, signalling me that you have never performed a        |
|     real-space optimization of all non-local projectors! BE WARNED that     |
|     a calculation using the real-space projection scheme together with      |
|     non-local projectors which were not real-space optimized (according     |
|     to the plane-wave cutoff used in this calculation) might give more      |
|     or less inaccurate results. I hope you know what you are doing.         |
|                                                                             |
 -----------------------------------------------------------------------------

 -----------------------------------------------------------------------------
|                                                                             |
|               ----> ADVICE to this user running VASP <----                  |
|                                                                             |
|     You enforced a specific xc type in the INCAR file but a different       |
|     type was found in the POTCAR file.                                      |
|     I HOPE YOU KNOW WHAT YOU ARE DOING!                                     |
|                                                                             |
 -----------------------------------------------------------------------------

  PAW_PBE Pt 04Feb2005                  :
 energy of atom  1       EATOM= -729.1176
 kinetic energy error for atom=    0.0052 (will be added to EATOM!!)
 
 
 POSCAR: Pt20
  positions in direct lattice
  velocities in cartesian coordinates
 exchange correlation table for  LEXCH =        9
   RHO(1)=    0.500       N(1)  =     2000
   RHO(2)=  100.500       N(2)  =     4000
 


--------------------------------------------------------------------------------------------------------


 ion  position               nearest neighbor table
   1  0.015  0.015  0.618-   3 2.82   4 2.82   2 2.82   2 2.82   4 2.82   3 2.82   5 2.86   7 2.87
                             6 2.87
   2  0.015  0.515  0.618-   1 2.82   3 2.82   4 2.82   4 2.82   3 2.82   1 2.82   6 2.86   8 2.87
                             5 2.87
   3  0.515  0.015  0.618-   1 2.82   4 2.82   2 2.82   2 2.82   4 2.82   1 2.82   7 2.86   5 2.87
                             8 2.87
   4  0.515  0.515  0.618-   1 2.82   3 2.82   2 2.82   2 2.82   3 2.82   1 2.82   8 2.86   6 2.87
                             7 2.87
   5  0.191  0.191  0.558-  10 2.80  11 2.80   9 2.81   7 2.82   8 2.82   6 2.82   6 2.82   8 2.82
                             7 2.82   1 2.86   3 2.87   2 2.87
   6  0.191  0.691  0.558-   9 2.80  12 2.80  10 2.81   8 2.82   7 2.82   5 2.82   5 2.82   7 2.82
                             8 2.82   2 2.86   4 2.87   1 2.87
   7  0.691  0.191  0.558-  12 2.80   9 2.80  11 2.81   5 2.82   8 2.82   6 2.82   6 2.82   8 2.82
                             5 2.82   3 2.86   1 2.87   4 2.87
   8  0.691  0.691  0.558-  11 2.80  10 2.80  12 2.81   7 2.82   5 2.82   6 2.82   6 2.82   5 2.82
                             7 2.82   4 2.86   2 2.87   3 2.87
   9  0.368  0.368  0.500-   6 2.80   7 2.80   5 2.81  16 2.81  15 2.82  14 2.82  11 2.82  10 2.82
                            12 2.82  12 2.82  10 2.82  11 2.82
  10  0.368  0.868  0.500-   5 2.80   8 2.80   6 2.81  15 2.81  16 2.82  13 2.82  11 2.82   9 2.82
                            12 2.82  12 2.82   9 2.82  11 2.82
  11  0.868  0.368  0.500-   8 2.80   5 2.80   7 2.81  14 2.81  16 2.81  13 2.82   9 2.82  10 2.82
                            12 2.82  12 2.82  10 2.82   9 2.82
  12  0.868  0.868  0.500-   7 2.80   6 2.80   8 2.81  13 2.81  14 2.82  15 2.82  10 2.82   9 2.82
                            11 2.82  11 2.82   9 2.82  10 2.82
  13  0.044  0.044  0.441-  12 2.81  11 2.82  10 2.82  17 2.82  18 2.82  19 2.82  14 2.82  14 2.82
                            15 2.82  15 2.82  16 2.82  16 2.82
  14  0.044  0.544  0.441-  11 2.81   9 2.82  12 2.82  18 2.82  17 2.82  20 2.82  13 2.82  13 2.82
                            16 2.82  16 2.82  15 2.82  15 2.82
  15  0.544  0.044  0.441-  10 2.81   9 2.82  12 2.82  19 2.82  20 2.82  17 2.82  16 2.82  16 2.82
                            13 2.82  13 2.82  14 2.82  14 2.82
  16  0.544  0.544  0.441-   9 2.81  11 2.81  10 2.82  20 2.82  19 2.82  18 2.82  15 2.82  15 2.82
                            14 2.82  14 2.82  13 2.82  13 2.82
  17  0.221  0.221  0.382-  13 2.82  14 2.82  15 2.82  18 2.82  18 2.82  19 2.82  19 2.82  20 2.82
                            20 2.82
  18  0.221  0.721  0.382-  14 2.82  13 2.82  16 2.82  17 2.82  17 2.82  20 2.82  20 2.82  19 2.82
                            19 2.82
  19  0.721  0.221  0.382-  15 2.82  16 2.82  13 2.82  20 2.82  20 2.82  17 2.82  17 2.82  18 2.82
                            18 2.82
  20  0.721  0.721  0.382-  16 2.82  15 2.82  14 2.82  19 2.82  19 2.82  18 2.82  18 2.82  17 2.82
                            17 2.82
 

IMPORTANT INFORMATION: All symmetrisations will be switched off!
NOSYMM: (Re-)initialisation of all symmetry stuff for point group C_1.


----------------------------------------------------------------------------------------

                                     Primitive cell                                     

  volume of cell :    1076.6955

  direct lattice vectors                    reciprocal lattice vectors
     5.633542000  0.000000000  0.202887000     0.177508218 -0.102307277  0.000000000
     2.813117000  4.880898000  0.202887000     0.000000000  0.204880331  0.000000000
     0.000000000  0.000000000 39.157200000    -0.000919731 -0.000531466  0.025538088

  length of vectors
     5.637194213  5.637193954 39.157200000     0.204880322  0.204880331  0.025560170

  position of ions in fractional coordinates (direct lattice)
     0.014681074  0.014717846  0.618408256
     0.014684261  0.514713151  0.618408191
     0.514679105  0.014711695  0.618411802
     0.514681556  0.514711927  0.618415689
     0.190689169  0.190656038  0.558190654
     0.190731039  0.690641193  0.558191847
     0.690730205  0.190670444  0.558189898
     0.690721856  0.690627667  0.558189885
     0.368208530  0.368188098  0.499842598
     0.368205318  0.868180854  0.499842841
     0.868178128  0.368197624  0.499842069
     0.868197900  0.868184486  0.499846001
     0.044118000  0.044118000  0.441176000
     0.044118000  0.544118000  0.441176000
     0.544118000  0.044118000  0.441176000
     0.544118000  0.544118000  0.441176000
     0.220588000  0.220588000  0.382353000
     0.220588000  0.720588000  0.382353000
     0.720588000  0.220588000  0.382353000
     0.720588000  0.720588000  0.382353000

  ion indices of the primitive-cell ions
   primitive index   ion index
                 1           1
                 2           2
                 3           3
                 4           4
                 5           5
                 6           6
                 7           7
                 8           8
                 9           9
                10          10
                11          11
                12          12
                13          13
                14          14
                15          15
                16          16
                17          17
                18          18
                19          19
                20          20

----------------------------------------------------------------------------------------

 
 
 KPOINTS: Automatic kpoint scheme                 

Automatic generation of k-mesh.
 Grid dimensions read from file:
 generate k-points for:    2    2    1

 Generating k-lattice:

  Cartesian coordinates                     Fractional coordinates (reciprocal lattice)
     0.088754109 -0.051153639  0.000000000     0.500000000  0.000000000  0.000000000
     0.000000000  0.102440166  0.000000000     0.000000000  0.500000000  0.000000000
    -0.000919731 -0.000531466  0.025538088     0.000000000  0.000000000  1.000000000

  Length of vectors
     0.102440161  0.102440166  0.025560170

  Shift w.r.t. Gamma in fractional coordinates (k-lattice)
     0.000000000  0.000000000  0.000000000

 
 Subroutine IBZKPT returns following result:
 ===========================================
 
 Found      4 irreducible k-points:
 
 Following reciprocal coordinates:
            Coordinates               Weight
  0.000000  0.000000  0.000000      1.000000
  0.500000  0.000000  0.000000      1.000000
  0.000000  0.500000  0.000000      1.000000
  0.500000  0.500000  0.000000      1.000000
 
 Following cartesian coordinates:
            Coordinates               Weight
  0.000000  0.000000  0.000000      1.000000
  0.088754 -0.051154  0.000000      1.000000
  0.000000  0.102440  0.000000      1.000000
  0.088754  0.051287  0.000000      1.000000
 


--------------------------------------------------------------------------------------------------------




 Dimension of arrays:
   k-points           NKPTS =      4   k-points in BZ     NKDIM =      4   number of bands    NBANDS=    120
   number of dos      NEDOS =    301   number of ions     NIONS =     20
   non local maximal  LDIM  =      6   non local SUM 2l+1 LMDIM =     18
   total plane-waves  NPLWV = 153664
   max r-space proj   IRMAX =   1714   max aug-charges    IRDMAX=   8843
   dimension x,y,z NGX =    28 NGY =   28 NGZ =  196
   dimension x,y,z NGXF=    56 NGYF=   56 NGZF=  392
   support grid    NGXF=    56 NGYF=   56 NGZF=  392
   ions per type =              20
   NGX,Y,Z   is equivalent  to a cutoff of   8.26,  8.26,  8.32 a.u.
   NGXF,Y,Z  is equivalent  to a cutoff of  16.51, 16.51, 16.64 a.u.

 SYSTEM =  unknown system                          
 POSCAR =  Pt20                                    

 Startparameter for this run:
   NWRITE =      2    write-flag & timer
   PREC   = normal    normal or accurate (medium, high low for compatibility)
   ISTART =      0    job   : 0-new  1-cont  2-samecut
   ICHARG =      2    charge: 1-file 2-atom 10-const
   ISPIN  =      1    spin polarized calculation?
   LNONCOLLINEAR =      F non collinear calculations
   LSORBIT =      F    spin-orbit coupling
   INIWAV =      1    electr: 0-lowe 1-rand  2-diag
   LASPH  =      F    aspherical Exc in radial PAW
   METAGGA=      F    non-selfconsistent MetaGGA calc.

 Electronic Relaxation 1
   ENCUT  =  420.0 eV  30.87 Ry    5.56 a.u.   9.42  9.42 65.43*2*pi/ulx,y,z
   ENINI  =  420.0     initial cutoff
   ENAUG  =  359.0 eV  augmentation charge cutoff
   NELM   =     80;   NELMIN=  8; NELMDL=  0     # of ELM steps 
   EDIFF  = 0.1E-05   stopping-criterion for ELM
   LREAL  =      T    real-space projection
   NLSPLINE    = F    spline interpolate recip. space projectors
   LCOMPAT=      F    compatible to vasp.4.4
   GGA_COMPAT  = T    GGA compatible to vasp.4.4-vasp.4.6
   LMAXPAW     = -100 max onsite density
   LMAXMIX     =    2 max onsite mixed and CHGCAR
   VOSKOWN=      0    Vosko Wilk Nusair interpolation
   ROPT   =    0.00000
 Ionic relaxation
   EDIFFG = -.3E-01   stopping-criterion for IOM
   NSW    =    300    number of steps for IOM
   NBLOCK =      1;   KBLOCK =    300    inner block; outer block 
   IBRION =      2    ionic relax: 0-MD 1-quasi-New 2-CG
   NFREE  =      1    steps in history (QN), initial steepest desc. (CG)
   ISIF   =      0    stress and relaxation
   IWAVPR =     11    prediction:  0-non 1-charg 2-wave 3-comb
   ISYM   =      0    0-nonsym 1-usesym 2-fastsym
   LCORR  =      T    Harris-Foulkes like correction to forces

   POTIM  = 0.5000    time-step for ionic-motion
   TEIN   =    0.0    initial temperature
   TEBEG  =    0.0;   TEEND  =   0.0 temperature during run
   SMASS  =  -3.00    Nose mass-parameter (am)
   estimated Nose-frequenzy (Omega)   =  0.10E-29 period in steps = 0.13E+47 mass=  -0.726E-27a.u.
   SCALEE = 1.0000    scale energy and forces
   NPACO  =    256;   APACO  = 16.0  distance and # of slots for P.C.
   PSTRESS=    0.0 pullay stress

  Mass of Ions in am
   POMASS = 195.08
  Ionic Valenz
   ZVAL   =  10.00
  Atomic Wigner-Seitz radii
   RWIGS  =  -1.00
  virtual crystal weights 
   VCA    =   1.00
   NELECT =     200.0000    total number of electrons
   NUPDOWN=      -1.0000    fix difference up-down

 DOS related values:
   EMIN   =  10.00;   EMAX   =-10.00  energy-range for DOS
   EFERMI =   0.00
   ISMEAR =     0;   SIGMA  =   0.05  broadening in eV -4-tet -1-fermi 0-gaus

 Electronic relaxation 2 (details)
   IALGO  =     38    algorithm
   LDIAG  =      T    sub-space diagonalisation (order eigenvalues)
   LSUBROT=      F    optimize rotation matrix (better conditioning)
   TURBO    =      0    0=normal 1=particle mesh
   IRESTART =      0    0=no restart 2=restart with 2 vectors
   NREBOOT  =      0    no. of reboots
   NMIN     =      0    reboot dimension
   EREF     =   0.00    reference energy to select bands
   IMIX   =      4    mixing-type and parameters
     AMIX     =   0.20;   BMIX     =  0.00
     AMIX_MAG =   0.80;   BMIX_MAG =  0.00
     AMIN     =   0.01
     WC   =   100.;   INIMIX=   1;  MIXPRE=   1;  MAXMIX= -45

 Intra band minimization:
   WEIMIN = 0.0010     energy-eigenvalue tresh-hold
   EBREAK =  0.21E-08  absolut break condition
   DEPER  =   0.30     relativ break condition  

   TIME   =   0.40     timestep for ELM

  volume/ion in A,a.u.               =      53.83       363.29
  Fermi-wavevector in a.u.,A,eV,Ry     =   0.934087  1.765168 11.871328  0.872518
  Thomas-Fermi vector in A             =   2.060855
 
 Write flags
   LWAVE        =      F    write WAVECAR
   LDOWNSAMPLE  =      F    k-point downsampling of WAVECAR
   LCHARG       =      T    write CHGCAR
   LVTOT        =      F    write LOCPOT, total local potential
   LVHAR        =      F    write LOCPOT, Hartree potential only
   LELF         =      F    write electronic localiz. function (ELF)
   LORBIT       =     11    0 simple, 1 ext, 2 COOP (PROOUT), +10 PAW based schemes


 Dipole corrections
   LMONO  =      F    monopole corrections only (constant potential shift)
   LDIPOL =      F    correct potential (dipole corrections)
   IDIPOL =      0    1-x, 2-y, 3-z, 4-all directions 
   EPSILON=  1.0000000 bulk dielectric constant

 Exchange correlation treatment:
   GGA     =    RP    GGA type
   LEXCH   =     9    internal setting for exchange type
   VOSKOWN=      0    Vosko Wilk Nusair interpolation
   LHFCALC =     F    Hartree Fock is set to
   LHFONE  =     F    Hartree Fock one center treatment
   AEXX    =    0.0000 exact exchange contribution

 Linear response parameters
   LEPSILON=     F    determine dielectric tensor
   LRPA    =     F    only Hartree local field effects (RPA)
   LNABLA  =     F    use nabla operator in PAW spheres
   LVEL    =     F    velocity operator in full k-point grid
   LINTERFAST=   F  fast interpolation
   KINTER  =     0    interpolate to denser k-point grid
   CSHIFT  =0.1000    complex shift for real part using Kramers Kronig
   OMEGAMAX=  -1.0    maximum frequency
   DEG_THRESHOLD= 0.2000000E-02 threshold for treating states as degnerate
   RTIME   =   -0.100 relaxation time in fs
  (WPLASMAI=    0.000 imaginary part of plasma frequency in eV, 0.658/RTIME)
   DFIELD  = 0.0000000 0.0000000 0.0000000 field for delta impulse in time
 
 Orbital magnetization related:
   ORBITALMAG=     F  switch on orbital magnetization
   LCHIMAG   =     F  perturbation theory with respect to B field
   DQ        =  0.001000  dq finite difference perturbation B field
   LLRAUG    =     F  two centre corrections for induced B field



--------------------------------------------------------------------------------------------------------


 conjugate gradient relaxation of ions
   using selective dynamics as specified on POSCAR
 charge density and potential will be updated during run
 non-spin polarized calculation
 Variant of blocked Davidson
 Davidson routine will perform the subspace rotation
 perform sub-space diagonalisation
    after iterative eigenvector-optimisation
 modified Broyden-mixing scheme, WC =      100.0
 initial mixing is a Kerker type mixing with AMIX =  0.2000 and BMIX =      0.0010
 Hartree-type preconditioning will be used
 using additional bands            20
 real space projection scheme for non local part
 use partial core corrections
 calculate Harris-corrections to forces 
   (improved forces if not selfconsistent)
 use gradient corrections 
 use of overlap-Matrix (Vanderbilt PP)
 Gauss-broadening in eV      SIGMA  =   0.05


--------------------------------------------------------------------------------------------------------


  energy-cutoff  :      420.00
  volume of cell :     1076.70
      direct lattice vectors                 reciprocal lattice vectors
     5.633542000  0.000000000  0.202887000     0.177508218 -0.102307277  0.000000000
     2.813117000  4.880898000  0.202887000     0.000000000  0.204880331  0.000000000
     0.000000000  0.000000000 39.157200000    -0.000919731 -0.000531466  0.025538088

  length of vectors
     5.637194213  5.637193954 39.157200000     0.204880322  0.204880331  0.025560170


 
 k-points in units of 2pi/SCALE and weight: Automatic kpoint scheme                 
   0.00000000  0.00000000  0.00000000       0.250
   0.08875411 -0.05115364  0.00000000       0.250
   0.00000000  0.10244017  0.00000000       0.250
   0.08875411  0.05128653  0.00000000       0.250
 
 k-points in reciprocal lattice and weights: Automatic kpoint scheme                 
   0.00000000  0.00000000  0.00000000       0.250
   0.50000000  0.00000000  0.00000000       0.250
   0.00000000  0.50000000  0.00000000       0.250
   0.50000000  0.50000000  0.00000000       0.250
 
 position of ions in fractional coordinates (direct lattice) 
   0.01468107  0.01471785  0.61840826
   0.01468426  0.51471315  0.61840819
   0.51467911  0.01471170  0.61841180
   0.51468156  0.51471193  0.61841569
   0.19068917  0.19065604  0.55819065
   0.19073104  0.69064119  0.55819185
   0.69073021  0.19067044  0.55818990
   0.69072186  0.69062767  0.55818988
   0.36820853  0.36818810  0.49984260
   0.36820532  0.86818085  0.49984284
   0.86817813  0.36819762  0.49984207
   0.86819790  0.86818449  0.49984600
   0.04411800  0.04411800  0.44117600
   0.04411800  0.54411800  0.44117600
   0.54411800  0.04411800  0.44117600
   0.54411800  0.54411800  0.44117600
   0.22058800  0.22058800  0.38235300
   0.22058800  0.72058800  0.38235300
   0.72058800  0.22058800  0.38235300
   0.72058800  0.72058800  0.38235300
 
 position of ions in cartesian coordinates  (Angst):
   0.12410947  0.07183630 24.22110042
   1.53067272  2.51226239 24.32254108
   2.94085208  0.07180629 24.32268112
   4.34742503  2.51225641 24.42427739
   1.61059319  0.93057268 21.93455308
   3.01734580  3.37094922 22.03604877
   4.42763589  0.93064299 22.03597822
   5.83402702  3.37088320 22.13741082
   3.11007442  1.79708855 19.72184187
   4.51659444  4.23750219 19.82329279
   5.92670094  1.79713505 19.82326042
   7.33333387  4.23751992 19.92485924
   0.37264970  0.21533546 17.29311880
   1.77920820  2.65578446 17.39456230
   3.18942070  0.21533546 17.39456230
   4.59597920  2.65578446 17.49600580
   1.86323162  1.07666753 15.06138177
   3.26979012  3.51711653 15.16282527
   4.68000262  1.07666753 15.16282527
   6.08656112  3.51711653 15.26426877
 


--------------------------------------------------------------------------------------------------------


 k-point   1 :   0.0000 0.0000 0.0000  plane waves:   21101
 k-point   2 :   0.5000 0.0000 0.0000  plane waves:   21010
 k-point   3 :   0.0000 0.5000 0.0000  plane waves:   21010
 k-point   4 :   0.5000 0.5000 0.0000  plane waves:   21034

 maximum and minimum number of plane-waves per node :      5289     5236

 maximum number of plane-waves:     21101
 maximum index in each direction: 
   IXMAX=    9   IYMAX=    9   IZMAX=   65
   IXMIN=   -9   IYMIN=   -9   IZMIN=  -65


 real space projection operators:
  total allocation   :       4547.25 KBytes
  max/ min on nodes  :       1138.64       1134.98


 parallel 3D FFT for wavefunctions:
    minimum data exchange during FFTs selected (reduces bandwidth)
 parallel 3D FFT for charge:
    minimum data exchange during FFTs selected (reduces bandwidth)


 total amount of memory used by VASP MPI-rank0    52184. kBytes
=======================================================================

   base      :      30000. kBytes
   nonlr-proj:       1966. kBytes
   fftplans  :       4044. kBytes
   grid      :       5768. kBytes
   one-center:         77. kBytes
   wavefun   :      10329. kBytes
 
     INWAV:  cpu time    0.0000: real time    0.0000
 Broyden mixing: mesh for mixing (old mesh)
   NGX = 19   NGY = 19   NGZ =131
  (NGX  = 56   NGY  = 56   NGZ  =392)
  gives a total of  47291 points

 initial charge density was supplied:
 charge density of overlapping atoms calculated
 number of electron     200.0000000 magnetization 
 keeping initial charge density in first step


--------------------------------------------------------------------------------------------------------


 Maximum index for non-local projection operator           417
 Maximum index for augmentation-charges           782 (set IRDMAX)


--------------------------------------------------------------------------------------------------------


 First call to EWALD:  gamma=   0.173
 Maximum number of real-space cells 5x 5x 1
 Maximum number of reciprocal cells 2x 2x 9

    FEWALD:  cpu time    0.0044: real time    0.0044


--------------------------------------- Iteration      1(   1)  ---------------------------------------


    POTLOK:  cpu time    0.1199: real time    0.1268
    SETDIJ:  cpu time    0.0132: real time    0.0132
     EDDAV:  cpu time    2.5327: real time    2.5396
       DOS:  cpu time    0.0012: real time    0.0012
    --------------------------------------------
      LOOP:  cpu time    2.6670: real time    2.6808

 eigenvalue-minimisations  :   960
 total energy-change (2. order) : 0.1347411E+04  (-0.7462021E+04)
 number of electron     200.0000000 magnetization 
 augmentation part      200.0000000 magnetization 

 Free energy of the ion-electron system (eV)
  ---------------------------------------------------
  alpha Z        PSCENC =       353.14819109
  Ewald energy   TEWEN  =    200384.30822298
  -Hartree energ DENC   =   -215394.66326923
  -exchange      EXHF   =         0.00000000
  -V(xc)+E(xc)   XCENC  =        61.00893459
  PAW double counting   =     13934.11900847   -13349.16546025
  entropy T*S    EENTRO =        -0.02614169
  eigenvalues    EBANDS =       792.29697856
  atomic energy  EATOM  =     14566.38418648
  Solvation  Ediel_sol  =         0.00000000
  ---------------------------------------------------
  free energy    TOTEN  =      1347.41065101 eV

  energy without entropy =     1347.43679269  energy(sigma->0) =     1347.42372185


--------------------------------------------------------------------------------------------------------




--------------------------------------- Iteration      1(   2)  ---------------------------------------


     EDDAV:  cpu time    3.0294: real time    3.0372
       DOS:  cpu time    0.0014: real time    0.0014
    --------------------------------------------
      LOOP:  cpu time    3.0308: real time    3.0386

 eigenvalue-minimisations  :  1208
 total energy-change (2. order) :-0.1342947E+04  (-0.1229625E+04)
 number of electron     200.0000000 magnetization 
 augmentation part      200.0000000 magnetization 

 Free energy of the ion-electron system (eV)
  ---------------------------------------------------
  alpha Z        PSCENC =       353.14819109
  Ewald energy   TEWEN  =    200384.30822298
  -Hartree energ DENC   =   -215394.66326923
  -exchange      EXHF   =         0.00000000
  -V(xc)+E(xc)   XCENC  =        61.00893459
  PAW double counting   =     13934.11900847   -13349.16546025
  entropy T*S    EENTRO =        -0.02280611
  eigenvalues    EBANDS =      -550.65377522
  atomic energy  EATOM  =     14566.38418648
  Solvation  Ediel_sol  =         0.00000000
  ---------------------------------------------------
  free energy    TOTEN  =         4.46323279 eV

  energy without entropy =        4.48603891  energy(sigma->0) =        4.47463585


--------------------------------------------------------------------------------------------------------




--------------------------------------- Iteration      1(   3)  ---------------------------------------


     EDDAV:  cpu time    2.8505: real time    2.8571
       DOS:  cpu time    0.0012: real time    0.0012
    --------------------------------------------
      LOOP:  cpu time    2.8517: real time    2.8583

 eigenvalue-minimisations  :  1136
 total energy-change (2. order) :-0.1129540E+03  (-0.1035570E+03)
 number of electron     200.0000000 magnetization 
 augmentation part      200.0000000 magnetization 

 Free energy of the ion-electron system (eV)
  ---------------------------------------------------
  alpha Z        PSCENC =       353.14819109
  Ewald energy   TEWEN  =    200384.30822298
  -Hartree energ DENC   =   -215394.66326923
  -exchange      EXHF   =         0.00000000
  -V(xc)+E(xc)   XCENC  =        61.00893459
  PAW double counting   =     13934.11900847   -13349.16546025
  entropy T*S    EENTRO =        -0.06207105
  eigenvalues    EBANDS =      -663.56849227
  atomic energy  EATOM  =     14566.38418648
  Solvation  Ediel_sol  =         0.00000000
  ---------------------------------------------------
  free energy    TOTEN  =      -108.49074919 eV

  energy without entropy =     -108.42867814  energy(sigma->0) =     -108.45971366


--------------------------------------------------------------------------------------------------------




--------------------------------------- Iteration      1(   4)  ---------------------------------------


     EDDAV:  cpu time    3.2166: real time    3.2323
       DOS:  cpu time    0.0013: real time    0.0013
    --------------------------------------------
      LOOP:  cpu time    3.2179: real time    3.2336

 eigenvalue-minimisations  :  1328
 total energy-change (2. order) :-0.4975519E+01  (-0.4709122E+01)
 number of electron     200.0000000 magnetization 
 augmentation part      200.0000000 magnetization 

 Free energy of the ion-electron system (eV)
  ---------------------------------------------------
  alpha Z        PSCENC =       353.14819109
  Ewald energy   TEWEN  =    200384.30822298
  -Hartree energ DENC   =   -215394.66326923
  -exchange      EXHF   =         0.00000000
  -V(xc)+E(xc)   XCENC  =        61.00893459
  PAW double counting   =     13934.11900847   -13349.16546025
  entropy T*S    EENTRO =        -0.09162082
  eigenvalues    EBANDS =      -668.51446164
  atomic energy  EATOM  =     14566.38418648
  Solvation  Ediel_sol  =         0.00000000
  ---------------------------------------------------
  free energy    TOTEN  =      -113.46626833 eV

  energy without entropy =     -113.37464751  energy(sigma->0) =     -113.42045792


--------------------------------------------------------------------------------------------------------




--------------------------------------- Iteration      1(   5)  ---------------------------------------


     EDDAV:  cpu time    2.8870: real time    2.8966
       DOS:  cpu time    0.0014: real time    0.0014
    CHARGE:  cpu time    0.1648: real time    0.1651
    MIXING:  cpu time    0.0025: real time    0.0025
    --------------------------------------------
      LOOP:  cpu time    3.0557: real time    3.0656

 eigenvalue-minimisations  :  1152
 total energy-change (2. order) :-0.1021735E+00  (-0.1011071E+00)
 number of electron     200.0000091 magnetization 
 augmentation part       58.4803146 magnetization 

 Broyden mixing:
  rms(total) = 0.43109E+01    rms(broyden)= 0.43109E+01
  rms(prec ) = 0.43398E+01
  weight for this iteration     100.00

 Free energy of the ion-electron system (eV)
  ---------------------------------------------------
  alpha Z        PSCENC =       353.14819109
  Ewald energy   TEWEN  =    200384.30822298
  -Hartree energ DENC   =   -215394.66326923
  -exchange      EXHF   =         0.00000000
  -V(xc)+E(xc)   XCENC  =        61.00893459
  PAW double counting   =     13934.11900847   -13349.16546025
  entropy T*S    EENTRO =        -0.09294274
  eigenvalues    EBANDS =      -668.61531323
  atomic energy  EATOM  =     14566.38418648
  Solvation  Ediel_sol  =         0.00000000
  ---------------------------------------------------
  free energy    TOTEN  =      -113.56844183 eV

  energy without entropy =     -113.47549910  energy(sigma->0) =     -113.52197047


--------------------------------------------------------------------------------------------------------




--------------------------------------- Iteration      1(   6)  ---------------------------------------


    POTLOK:  cpu time    0.1171: real time    0.1173
    SETDIJ:  cpu time    0.0101: real time    0.0101
     EDDAV:  cpu time    2.7713: real time    2.7803
       DOS:  cpu time    0.0013: real time    0.0014
    CHARGE:  cpu time    0.1586: real time    0.1589
    MIXING:  cpu time    0.0027: real time    0.0027
    --------------------------------------------
      LOOP:  cpu time    3.0611: real time    3.0707

 eigenvalue-minimisations  :  1088
 total energy-change (2. order) :-0.1862102E+02  (-0.5715942E+01)
 number of electron     200.0000129 magnetization 
 augmentation part       60.5848540 magnetization 

 Broyden mixing:
  rms(total) = 0.63744E+01    rms(broyden)= 0.63743E+01
  rms(prec ) = 0.69294E+01
  weight for this iteration     100.00

 eigenvalues of (default mixing * dielectric matrix)
  average eigenvalue GAMMA=   0.0817
  0.0817

 Free energy of the ion-electron system (eV)
  ---------------------------------------------------
  alpha Z        PSCENC =       353.14819109
  Ewald energy   TEWEN  =    200384.30822298
  -Hartree energ DENC   =   -214916.93827412
  -exchange      EXHF   =         0.00000000
  -V(xc)+E(xc)   XCENC  =        58.08078401
  PAW double counting   =     14580.50563608   -14009.85692757
  entropy T*S    EENTRO =        -0.04757492
  eigenvalues    EBANDS =     -1147.77370892
  atomic energy  EATOM  =     14566.38418648
  Solvation  Ediel_sol  =         0.00000000
  ---------------------------------------------------
  free energy    TOTEN  =      -132.18946489 eV

  energy without entropy =     -132.14188997  energy(sigma->0) =     -132.16567743


--------------------------------------------------------------------------------------------------------




--------------------------------------- Iteration      1(   7)  ---------------------------------------


    POTLOK:  cpu time    0.1161: real time    0.1162
    SETDIJ:  cpu time    0.0099: real time    0.0099
     EDDAV:  cpu time    2.9496: real time    2.9572
       DOS:  cpu time    0.0013: real time    0.0013
    CHARGE:  cpu time    0.1549: real time    0.1578
    MIXING:  cpu time    0.0030: real time    0.0030
    --------------------------------------------
      LOOP:  cpu time    3.2348: real time    3.2454

 eigenvalue-minimisations  :  1176
 total energy-change (2. order) :-0.1587292E+02  (-0.8711246E+00)
 number of electron     200.0000136 magnetization 
 augmentation part       60.3900329 magnetization 

 Broyden mixing:
  rms(total) = 0.69813E+01    rms(broyden)= 0.69813E+01
  rms(prec ) = 0.78340E+01
  weight for this iteration     100.00

 eigenvalues of (default mixing * dielectric matrix)
  average eigenvalue GAMMA=   0.1751
  0.1751  0.1751

 Free energy of the ion-electron system (eV)
  ---------------------------------------------------
  alpha Z        PSCENC =       353.14819109
  Ewald energy   TEWEN  =    200384.30822298
  -Hartree energ DENC   =   -214861.90427005
  -exchange      EXHF   =         0.00000000
  -V(xc)+E(xc)   XCENC  =        58.12163912
  PAW double counting   =     14562.40374785   -13991.42335837
  entropy T*S    EENTRO =        -0.04230370
  eigenvalues    EBANDS =     -1219.05843944
  atomic energy  EATOM  =     14566.38418648
  Solvation  Ediel_sol  =         0.00000000
  ---------------------------------------------------
  free energy    TOTEN  =      -148.06238403 eV

  energy without entropy =     -148.02008033  energy(sigma->0) =     -148.04123218


--------------------------------------------------------------------------------------------------------




--------------------------------------- Iteration      1(   8)  ---------------------------------------


    POTLOK:  cpu time    0.1114: real time    0.1117
    SETDIJ:  cpu time    0.0098: real time    0.0098
     EDDAV:  cpu time    3.7532: real time    3.7707
       DOS:  cpu time    0.0011: real time    0.0011
    CHARGE:  cpu time    0.1573: real time    0.1604
    MIXING:  cpu time    0.0029: real time    0.0029
    --------------------------------------------
      LOOP:  cpu time    4.0357: real time    4.0566

 eigenvalue-minimisations  :  1600
 total energy-change (2. order) :-0.1265873E+03  (-0.8818902E+01)
 number of electron     200.0000141 magnetization 
 augmentation part       57.9023837 magnetization 

 Broyden mixing:
  rms(total) = 0.10504E+02    rms(broyden)= 0.10504E+02
  rms(prec ) = 0.13324E+02
  weight for this iteration     100.00

 eigenvalues of (default mixing * dielectric matrix)
  average eigenvalue GAMMA=   0.2079
  0.3598  0.1319  0.1319

 Free energy of the ion-electron system (eV)
  ---------------------------------------------------
  alpha Z        PSCENC =       353.14819109
  Ewald energy   TEWEN  =    200384.30822298
  -Hartree energ DENC   =   -214953.56622165
  -exchange      EXHF   =         0.00000000
  -V(xc)+E(xc)   XCENC  =        58.00214594
  PAW double counting   =     14668.82797949   -14098.60845219
  entropy T*S    EENTRO =        -0.02710102
  eigenvalues    EBANDS =     -1253.11866212
  atomic energy  EATOM  =     14566.38418648
  Solvation  Ediel_sol  =         0.00000000
  ---------------------------------------------------
  free energy    TOTEN  =      -274.64971100 eV

  energy without entropy =     -274.62260998  energy(sigma->0) =     -274.63616049


--------------------------------------------------------------------------------------------------------




--------------------------------------- Iteration      1(   9)  ---------------------------------------


    POTLOK:  cpu time    0.1101: real time    0.1103
    SETDIJ:  cpu time    0.0099: real time    0.0099
     EDDAV:  cpu time    2.9221: real time    2.9343
       DOS:  cpu time    0.0009: real time    0.0009
    CHARGE:  cpu time    0.1589: real time    0.1592
    MIXING:  cpu time    0.0031: real time    0.0031
    --------------------------------------------
      LOOP:  cpu time    3.2050: real time    3.2177

 eigenvalue-minimisations  :  1160
 total energy-change (2. order) :-0.1264647E+03  (-0.1444099E+02)
 number of electron     200.0000140 magnetization 
 augmentation part       54.8497746 magnetization 

 Broyden mixing:
  rms(total) = 0.13716E+02    rms(broyden)= 0.13716E+02
  rms(prec ) = 0.17801E+02
  weight for this iteration     100.00

 eigenvalues of (default mixing * dielectric matrix)
  average eigenvalue GAMMA=   0.3157
  0.5047  0.5047  0.1887  0.0649

 Free energy of the ion-electron system (eV)
  ---------------------------------------------------
  alpha Z        PSCENC =       353.14819109
  Ewald energy   TEWEN  =    200384.30822298
  -Hartree energ DENC   =   -215086.49665046
  -exchange      EXHF   =         0.00000000
  -V(xc)+E(xc)   XCENC  =        58.63850626
  PAW double counting   =     14451.21224075   -13879.00681795
  entropy T*S    EENTRO =        -0.01286568
  eigenvalues    EBANDS =     -1249.28945859
  atomic energy  EATOM  =     14566.38418648
  Solvation  Ediel_sol  =         0.00000000
  ---------------------------------------------------
  free energy    TOTEN  =      -401.11444512 eV

  energy without entropy =     -401.10157944  energy(sigma->0) =     -401.10801228


--------------------------------------------------------------------------------------------------------




--------------------------------------- Iteration      1(  10)  ---------------------------------------


    POTLOK:  cpu time    0.1091: real time    0.1093
    SETDIJ:  cpu time    0.0100: real time    0.0100
     EDDAV:  cpu time    3.0652: real time    3.0788
       DOS:  cpu time    0.0012: real time    0.0012
    CHARGE:  cpu time    0.1639: real time    0.1643
    MIXING:  cpu time    0.0031: real time    0.0031
    --------------------------------------------
      LOOP:  cpu time    3.3526: real time    3.3667

 eigenvalue-minimisations  :  1240
 total energy-change (2. order) : 0.1305811E+00  (-0.6899552E+01)
 number of electron     200.0000138 magnetization 
 augmentation part       51.9441837 magnetization 

 Broyden mixing:
  rms(total) = 0.13828E+02    rms(broyden)= 0.13828E+02
  rms(prec ) = 0.18431E+02
  weight for this iteration     100.00

 eigenvalues of (default mixing * dielectric matrix)
  average eigenvalue GAMMA=   0.3262
  0.6233  0.6233  0.1849  0.1406  0.0588

 Free energy of the ion-electron system (eV)
  ---------------------------------------------------
  alpha Z        PSCENC =       353.14819109
  Ewald energy   TEWEN  =    200384.30822298
  -Hartree energ DENC   =   -215301.04410977
  -exchange      EXHF   =         0.00000000
  -V(xc)+E(xc)   XCENC  =        58.95481127
  PAW double counting   =     14719.74835665   -14147.77556731
  entropy T*S    EENTRO =        -0.07365956
  eigenvalues    EBANDS =     -1034.63429588
  atomic energy  EATOM  =     14566.38418648
  Solvation  Ediel_sol  =         0.00000000
  ---------------------------------------------------
  free energy    TOTEN  =      -400.98386404 eV

  energy without entropy =     -400.91020449  energy(sigma->0) =     -400.94703426


--------------------------------------------------------------------------------------------------------




--------------------------------------- Iteration      1(  11)  ---------------------------------------


    POTLOK:  cpu time    0.1145: real time    0.1175
    SETDIJ:  cpu time    0.0098: real time    0.0099
     EDDAV:  cpu time    2.9926: real time    3.0000
       DOS:  cpu time    0.0010: real time    0.0010
    CHARGE:  cpu time    0.1638: real time    0.1643
    MIXING:  cpu time    0.0036: real time    0.0036
    --------------------------------------------
      LOOP:  cpu time    3.2854: real time    3.2963

 eigenvalue-minimisations  :  1216
 total energy-change (2. order) : 0.8784379E+02  (-0.6869290E+01)
 number of electron     200.0000136 magnetization 
 augmentation part       55.6658608 magnetization 

 Broyden mixing:
  rms(total) = 0.12050E+02    rms(broyden)= 0.12050E+02
  rms(prec ) = 0.15515E+02
  weight for this iteration     100.00

 eigenvalues of (default mixing * dielectric matrix)
  average eigenvalue GAMMA=   0.5387
  1.1765  1.1765  0.3320  0.3320  0.0608  0.1544

 Free energy of the ion-electron system (eV)
  ---------------------------------------------------
  alpha Z        PSCENC =       353.14819109
  Ewald energy   TEWEN  =    200384.30822298
  -Hartree energ DENC   =   -214842.97102777
  -exchange      EXHF   =         0.00000000
  -V(xc)+E(xc)   XCENC  =        58.04642860
  PAW double counting   =     14879.25710744   -14308.79327597
  entropy T*S    EENTRO =        -0.03826961
  eigenvalues    EBANDS =     -1402.48163826
  atomic energy  EATOM  =     14566.38418648
  Solvation  Ediel_sol  =         0.00000000
  ---------------------------------------------------
  free energy    TOTEN  =      -313.14007502 eV

  energy without entropy =     -313.10180541  energy(sigma->0) =     -313.12094022


--------------------------------------------------------------------------------------------------------




--------------------------------------- Iteration      1(  12)  ---------------------------------------


    POTLOK:  cpu time    0.1197: real time    0.1198
    SETDIJ:  cpu time    0.0099: real time    0.0099
     EDDAV:  cpu time    2.8699: real time    2.8854
       DOS:  cpu time    0.0013: real time    0.0013
    CHARGE:  cpu time    0.1706: real time    0.1710
    MIXING:  cpu time    0.0035: real time    0.0035
    --------------------------------------------
      LOOP:  cpu time    3.1748: real time    3.1909

 eigenvalue-minimisations  :  1160
 total energy-change (2. order) :-0.4900716E+02  (-0.2442591E+01)
 number of electron     200.0000142 magnetization 
 augmentation part       53.8966899 magnetization 

 Broyden mixing:
  rms(total) = 0.11292E+02    rms(broyden)= 0.11292E+02
  rms(prec ) = 0.16163E+02
  weight for this iteration     100.00

 eigenvalues of (default mixing * dielectric matrix)
  average eigenvalue GAMMA=   0.7037
  1.7131  1.7131  0.4944  0.4944  0.3027  0.0608  0.1476

 Free energy of the ion-electron system (eV)
  ---------------------------------------------------
  alpha Z        PSCENC =       353.14819109
  Ewald energy   TEWEN  =    200384.30822298
  -Hartree energ DENC   =   -215190.64656561
  -exchange      EXHF   =         0.00000000
  -V(xc)+E(xc)   XCENC  =        58.76579327
  PAW double counting   =     15459.32804558   -14891.39358561
  entropy T*S    EENTRO =        -0.02522984
  eigenvalues    EBANDS =     -1102.01629561
  atomic energy  EATOM  =     14566.38418648
  Solvation  Ediel_sol  =         0.00000000
  ---------------------------------------------------
  free energy    TOTEN  =      -362.14723727 eV

  energy without entropy =     -362.12200743  energy(sigma->0) =     -362.13462235


--------------------------------------------------------------------------------------------------------




--------------------------------------- Iteration      1(  13)  ---------------------------------------


    POTLOK:  cpu time    0.1185: real time    0.1213
    SETDIJ:  cpu time    0.0098: real time    0.0099
     EDDAV:  cpu time    3.2133: real time    3.2215
       DOS:  cpu time    0.0013: real time    0.0013
    CHARGE:  cpu time    0.1627: real time    0.1631
    MIXING:  cpu time    0.0037: real time    0.0037
    --------------------------------------------
      LOOP:  cpu time    3.5093: real time    3.5208

 eigenvalue-minimisations  :  1312
 total energy-change (2. order) : 0.2307254E+03  (-0.2685856E+03)
 number of electron     200.0000120 magnetization 
 augmentation part       61.0775438 magnetization 

 Broyden mixing:
  rms(total) = 0.59352E+01    rms(broyden)= 0.59350E+01
  rms(prec ) = 0.64769E+01
  weight for this iteration     100.00

 eigenvalues of (default mixing * dielectric matrix)
  average eigenvalue GAMMA=   0.6654
  1.7949  1.7949  0.5417  0.5417  0.3125  0.0607  0.1562  0.1208

 Free energy of the ion-electron system (eV)
  ---------------------------------------------------
  alpha Z        PSCENC =       353.14819109
  Ewald energy   TEWEN  =    200384.30822298
  -Hartree energ DENC   =   -213448.32600999
  -exchange      EXHF   =         0.00000000
  -V(xc)+E(xc)   XCENC  =        56.09760046
  PAW double counting   =     16832.45093913   -16270.58149011
  entropy T*S    EENTRO =        -0.01763953
  eigenvalues    EBANDS =     -2604.88580608
  atomic energy  EATOM  =     14566.38418648
  Solvation  Ediel_sol  =         0.00000000
  ---------------------------------------------------
  free energy    TOTEN  =      -131.42180556 eV

  energy without entropy =     -131.40416603  energy(sigma->0) =     -131.41298579


--------------------------------------------------------------------------------------------------------




--------------------------------------- Iteration      1(  14)  ---------------------------------------


    POTLOK:  cpu time    0.1159: real time    0.1162
    SETDIJ:  cpu time    0.0100: real time    0.0100
     EDDAV:  cpu time    3.0385: real time    3.0491
       DOS:  cpu time    0.0011: real time    0.0011
    CHARGE:  cpu time    0.1687: real time    0.1690
    MIXING:  cpu time    0.0038: real time    0.0038
    --------------------------------------------
      LOOP:  cpu time    3.3380: real time    3.3491

 eigenvalue-minimisations  :  1240
 total energy-change (2. order) :-0.3149787E+02  (-0.4136951E+02)
 number of electron     200.0000105 magnetization 
 augmentation part       62.4936309 magnetization 

 Broyden mixing:
  rms(total) = 0.59045E+01    rms(broyden)= 0.59044E+01
  rms(prec ) = 0.62217E+01
  weight for this iteration     100.00

 eigenvalues of (default mixing * dielectric matrix)
  average eigenvalue GAMMA=   0.5830
  1.4986  1.4986  0.8166  0.3602  0.3602  0.2532  0.2532  0.0608  0.1456

 Free energy of the ion-electron system (eV)
  ---------------------------------------------------
  alpha Z        PSCENC =       353.14819109
  Ewald energy   TEWEN  =    200384.30822298
  -Hartree energ DENC   =   -213159.08226873
  -exchange      EXHF   =         0.00000000
  -V(xc)+E(xc)   XCENC  =        55.71682208
  PAW double counting   =     17799.04528626   -17241.70226672
  entropy T*S    EENTRO =        -0.06437884
  eigenvalues    EBANDS =     -2920.67347381
  atomic energy  EATOM  =     14566.38418648
  Solvation  Ediel_sol  =         0.00000000
  ---------------------------------------------------
  free energy    TOTEN  =      -162.91967922 eV

  energy without entropy =     -162.85530038  energy(sigma->0) =     -162.88748980


--------------------------------------------------------------------------------------------------------




--------------------------------------- Iteration      1(  15)  ---------------------------------------


    POTLOK:  cpu time    0.1139: real time    0.1142
    SETDIJ:  cpu time    0.0099: real time    0.0099
     EDDAV:  cpu time    3.3175: real time    3.3343
       DOS:  cpu time    0.0014: real time    0.0014
    CHARGE:  cpu time    0.1612: real time    0.1616
    MIXING:  cpu time    0.0039: real time    0.0039
    --------------------------------------------
      LOOP:  cpu time    3.6079: real time    3.6253

 eigenvalue-minimisations  :  1384
 total energy-change (2. order) :-0.2393505E+01  (-0.8637353E+01)
 number of electron     200.0000105 magnetization 
 augmentation part       61.8885948 magnetization 

 Broyden mixing:
  rms(total) = 0.58386E+01    rms(broyden)= 0.58385E+01
  rms(prec ) = 0.69425E+01
  weight for this iteration     100.00

 eigenvalues of (default mixing * dielectric matrix)
  average eigenvalue GAMMA=   0.5595
  1.6003  1.6003  0.6858  0.3690  0.3690  0.2907  0.2907  0.0608  0.1449  0.1832

 Free energy of the ion-electron system (eV)
  ---------------------------------------------------
  alpha Z        PSCENC =       353.14819109
  Ewald energy   TEWEN  =    200384.30822298
  -Hartree energ DENC   =   -213452.13226211
  -exchange      EXHF   =         0.00000000
  -V(xc)+E(xc)   XCENC  =        55.38764164
  PAW double counting   =     17472.52352875   -16915.94260271
  entropy T*S    EENTRO =        -0.02636370
  eigenvalues    EBANDS =     -2628.96372681
  atomic energy  EATOM  =     14566.38418648
  Solvation  Ediel_sol  =         0.00000000
  ---------------------------------------------------
  free energy    TOTEN  =      -165.31318439 eV

  energy without entropy =     -165.28682069  energy(sigma->0) =     -165.30000254


--------------------------------------------------------------------------------------------------------




--------------------------------------- Iteration      1(  16)  ---------------------------------------


    POTLOK:  cpu time    0.1142: real time    0.1147
    SETDIJ:  cpu time    0.0099: real time    0.0099
     EDDAV:  cpu time    3.2532: real time    3.2680
       DOS:  cpu time    0.0014: real time    0.0014
    CHARGE:  cpu time    0.1583: real time    0.1586
    MIXING:  cpu time    0.0043: real time    0.0043
    --------------------------------------------
      LOOP:  cpu time    3.5413: real time    3.5569

 eigenvalue-minimisations  :  1360
 total energy-change (2. order) :-0.3206035E+01  (-0.8855393E+00)
 number of electron     200.0000104 magnetization 
 augmentation part       61.5702824 magnetization 

 Broyden mixing:
  rms(total) = 0.61225E+01    rms(broyden)= 0.61225E+01
  rms(prec ) = 0.72837E+01
  weight for this iteration     100.00

 eigenvalues of (default mixing * dielectric matrix)
  average eigenvalue GAMMA=   0.5470
  1.5756  1.5756  0.6252  0.3304  0.3304  0.4086  0.4086  0.2784  0.2784  0.0607
  0.1446

 Free energy of the ion-electron system (eV)
  ---------------------------------------------------
  alpha Z        PSCENC =       353.14819109
  Ewald energy   TEWEN  =    200384.30822298
  -Hartree energ DENC   =   -213538.33889803
  -exchange      EXHF   =         0.00000000
  -V(xc)+E(xc)   XCENC  =        55.82040769
  PAW double counting   =     17403.11726426   -16843.67859298
  entropy T*S    EENTRO =        -0.03623125
  eigenvalues    EBANDS =     -2549.24376987
  atomic energy  EATOM  =     14566.38418648
  Solvation  Ediel_sol  =         0.00000000
  ---------------------------------------------------
  free energy    TOTEN  =      -168.51921963 eV

  energy without entropy =     -168.48298838  energy(sigma->0) =     -168.50110401


--------------------------------------------------------------------------------------------------------




--------------------------------------- Iteration      1(  17)  ---------------------------------------


    POTLOK:  cpu time    0.1142: real time    0.1144
    SETDIJ:  cpu time    0.0099: real time    0.0099
     EDDAV:  cpu time    3.1367: real time    3.1534
       DOS:  cpu time    0.0012: real time    0.0012
    CHARGE:  cpu time    0.4147: real time    0.4149
    MIXING:  cpu time    0.0048: real time    0.0048
    --------------------------------------------
      LOOP:  cpu time    3.6816: real time    3.6987

 eigenvalue-minimisations  :  1296
 total energy-change (2. order) : 0.1968608E+01  (-0.1721456E+00)
 number of electron     200.0000105 magnetization 
 augmentation part       61.6832902 magnetization 

 Broyden mixing:
  rms(total) = 0.60153E+01    rms(broyden)= 0.60153E+01
  rms(prec ) = 0.72400E+01
  weight for this iteration     100.00

 eigenvalues of (default mixing * dielectric matrix)
  average eigenvalue GAMMA=   0.6261
  1.6391  1.6391  0.7931  0.7931  0.6082  0.4727  0.4727  0.0607  0.1444  0.3078
  0.3078  0.2744

 Free energy of the ion-electron system (eV)
  ---------------------------------------------------
  alpha Z        PSCENC =       353.14819109
  Ewald energy   TEWEN  =    200384.30822298
  -Hartree energ DENC   =   -213544.75136946
  -exchange      EXHF   =         0.00000000
  -V(xc)+E(xc)   XCENC  =        55.54315597
  PAW double counting   =     17394.21264815   -16836.29124434
  entropy T*S    EENTRO =        -0.03583745
  eigenvalues    EBANDS =     -2539.06856545
  atomic energy  EATOM  =     14566.38418648
  Solvation  Ediel_sol  =         0.00000000
  ---------------------------------------------------
  free energy    TOTEN  =      -166.55061204 eV

  energy without entropy =     -166.51477459  energy(sigma->0) =     -166.53269332


--------------------------------------------------------------------------------------------------------




--------------------------------------- Iteration      1(  18)  ---------------------------------------


    POTLOK:  cpu time    0.1168: real time    0.1169
    SETDIJ:  cpu time    0.0099: real time    0.0099
     EDDAV:  cpu time    2.6876: real time    2.6908
       DOS:  cpu time    0.0015: real time    0.0015
    CHARGE:  cpu time    0.1642: real time    0.1643
    MIXING:  cpu time    0.0044: real time    0.0045
    --------------------------------------------
      LOOP:  cpu time    2.9844: real time    2.9879

 eigenvalue-minimisations  :  1072
 total energy-change (2. order) : 0.1144985E+02  (-0.1302835E+01)
 number of electron     200.0000103 magnetization 
 augmentation part       61.9188700 magnetization 

 Broyden mixing:
  rms(total) = 0.53136E+01    rms(broyden)= 0.53136E+01
  rms(prec ) = 0.62755E+01
  weight for this iteration     100.00

 eigenvalues of (default mixing * dielectric matrix)
  average eigenvalue GAMMA=   0.7074
  1.6942  1.6942  1.2999  1.2999  0.7346  0.5322  0.5322  0.0607  0.1444  0.2661
  0.2661  0.3594  0.3125

 Free energy of the ion-electron system (eV)
  ---------------------------------------------------
  alpha Z        PSCENC =       353.14819109
  Ewald energy   TEWEN  =    200384.30822298
  -Hartree energ DENC   =   -213536.94058882
  -exchange      EXHF   =         0.00000000
  -V(xc)+E(xc)   XCENC  =        54.84334591
  PAW double counting   =     17382.04845328   -16828.78956203
  entropy T*S    EENTRO =        -0.03037466
  eigenvalues    EBANDS =     -2530.07263831
  atomic energy  EATOM  =     14566.38418648
  Solvation  Ediel_sol  =         0.00000000
  ---------------------------------------------------
  free energy    TOTEN  =      -155.10076409 eV

  energy without entropy =     -155.07038942  energy(sigma->0) =     -155.08557676


--------------------------------------------------------------------------------------------------------




--------------------------------------- Iteration      1(  19)  ---------------------------------------


    POTLOK:  cpu time    0.1128: real time    0.1129
    SETDIJ:  cpu time    0.0099: real time    0.0099
     EDDAV:  cpu time    2.7669: real time    2.7737
       DOS:  cpu time    0.0014: real time    0.0014
    CHARGE:  cpu time    0.1620: real time    0.1649
    MIXING:  cpu time    0.0050: real time    0.0050
    --------------------------------------------
      LOOP:  cpu time    3.0580: real time    3.0678

 eigenvalue-minimisations  :  1096
 total energy-change (2. order) : 0.3334068E+02  (-0.7171869E+01)
 number of electron     200.0000121 magnetization 
 augmentation part       63.8482132 magnetization 

 Broyden mixing:
  rms(total) = 0.31130E+01    rms(broyden)= 0.31129E+01
  rms(prec ) = 0.32540E+01
  weight for this iteration     100.00

 eigenvalues of (default mixing * dielectric matrix)
  average eigenvalue GAMMA=   0.7148
  2.3857  1.3509  1.3509  0.9304  0.7755  0.7755  0.5466  0.5466  0.0607  0.1444
  0.2762  0.2762  0.2936  0.2936

 Free energy of the ion-electron system (eV)
  ---------------------------------------------------
  alpha Z        PSCENC =       353.14819109
  Ewald energy   TEWEN  =    200384.30822298
  -Hartree energ DENC   =   -213824.16742727
  -exchange      EXHF   =         0.00000000
  -V(xc)+E(xc)   XCENC  =        52.93129559
  PAW double counting   =     16746.59774055   -16207.73579053
  entropy T*S    EENTRO =        -0.03375869
  eigenvalues    EBANDS =     -2193.19274730
  atomic energy  EATOM  =     14566.38418648
  Solvation  Ediel_sol  =         0.00000000
  ---------------------------------------------------
  free energy    TOTEN  =      -121.76008710 eV

  energy without entropy =     -121.72632840  energy(sigma->0) =     -121.74320775


--------------------------------------------------------------------------------------------------------




--------------------------------------- Iteration      1(  20)  ---------------------------------------


    POTLOK:  cpu time    0.1139: real time    0.1167
    SETDIJ:  cpu time    0.0099: real time    0.0099
     EDDAV:  cpu time    2.7001: real time    2.7088
       DOS:  cpu time    0.0014: real time    0.0014
    CHARGE:  cpu time    0.1793: real time    0.1796
    MIXING:  cpu time    0.0049: real time    0.0049
    --------------------------------------------
      LOOP:  cpu time    3.0095: real time    3.0213

 eigenvalue-minimisations  :  1056
 total energy-change (2. order) : 0.6497369E+01  (-0.1452393E+01)
 number of electron     200.0000112 magnetization 
 augmentation part       63.5663126 magnetization 

 Broyden mixing:
  rms(total) = 0.20929E+01    rms(broyden)= 0.20929E+01
  rms(prec ) = 0.21805E+01
  weight for this iteration     100.00

 eigenvalues of (default mixing * dielectric matrix)
  average eigenvalue GAMMA=   0.7072
  2.6611  1.3610  1.3610  0.8139  0.8139  0.7421  0.5734  0.5734  0.0607  0.1444
  0.3234  0.3155  0.3155  0.2742  0.2742

 Free energy of the ion-electron system (eV)
  ---------------------------------------------------
  alpha Z        PSCENC =       353.14819109
  Ewald energy   TEWEN  =    200384.30822298
  -Hartree energ DENC   =   -214058.97348402
  -exchange      EXHF   =         0.00000000
  -V(xc)+E(xc)   XCENC  =        53.32743548
  PAW double counting   =     16763.81145350   -16225.48757542
  entropy T*S    EENTRO =        -0.06488464
  eigenvalues    EBANDS =     -1951.71626329
  atomic energy  EATOM  =     14566.38418648
  Solvation  Ediel_sol  =         0.00000000
  ---------------------------------------------------
  free energy    TOTEN  =      -115.26271784 eV

  energy without entropy =     -115.19783320  energy(sigma->0) =     -115.23027552


--------------------------------------------------------------------------------------------------------




--------------------------------------- Iteration      1(  21)  ---------------------------------------


    POTLOK:  cpu time    0.1121: real time    0.1122
    SETDIJ:  cpu time    0.0108: real time    0.0108
     EDDAV:  cpu time    2.7715: real time    2.7777
       DOS:  cpu time    0.0012: real time    0.0012
    CHARGE:  cpu time    0.1745: real time    0.1746
    MIXING:  cpu time    0.0058: real time    0.0058
    --------------------------------------------
      LOOP:  cpu time    3.0759: real time    3.0823

 eigenvalue-minimisations  :  1120
 total energy-change (2. order) : 0.2207797E+01  (-0.2774464E+00)
 number of electron     200.0000118 magnetization 
 augmentation part       63.4493752 magnetization 

 Broyden mixing:
  rms(total) = 0.20709E+01    rms(broyden)= 0.20709E+01
  rms(prec ) = 0.21481E+01
  weight for this iteration     100.00

 eigenvalues of (default mixing * dielectric matrix)
  average eigenvalue GAMMA=   0.7340
  3.1033  1.3682  1.3682  0.9152  0.9152  0.5608  0.5608  0.5684  0.5684  0.4942
  0.0607  0.1444  0.2712  0.2712  0.2868  0.2868

 Free energy of the ion-electron system (eV)
  ---------------------------------------------------
  alpha Z        PSCENC =       353.14819109
  Ewald energy   TEWEN  =    200384.30822298
  -Hartree energ DENC   =   -214142.01988576
  -exchange      EXHF   =         0.00000000
  -V(xc)+E(xc)   XCENC  =        53.52358465
  PAW double counting   =     16862.58976344   -16323.98914458
  entropy T*S    EENTRO =        -0.08815434
  eigenvalues    EBANDS =     -1866.91168463
  atomic energy  EATOM  =     14566.38418648
  Solvation  Ediel_sol  =         0.00000000
  ---------------------------------------------------
  free energy    TOTEN  =      -113.05492068 eV

  energy without entropy =     -112.96676634  energy(sigma->0) =     -113.01084351


--------------------------------------------------------------------------------------------------------




--------------------------------------- Iteration      1(  22)  ---------------------------------------


    POTLOK:  cpu time    0.1163: real time    0.1163
    SETDIJ:  cpu time    0.0098: real time    0.0098
     EDDAV:  cpu time    2.9672: real time    2.9761
       DOS:  cpu time    0.0014: real time    0.0014
    CHARGE:  cpu time    0.1719: real time    0.1721
    MIXING:  cpu time    0.0077: real time    0.0077
    --------------------------------------------
      LOOP:  cpu time    3.2742: real time    3.2835

 eigenvalue-minimisations  :  1184
 total energy-change (2. order) :-0.3282359E+01  (-0.6070321E+00)
 number of electron     200.0000129 magnetization 
 augmentation part       63.3889190 magnetization 

 Broyden mixing:
  rms(total) = 0.30253E+01    rms(broyden)= 0.30253E+01
  rms(prec ) = 0.35124E+01
  weight for this iteration     100.00

 eigenvalues of (default mixing * dielectric matrix)
  average eigenvalue GAMMA=   0.7227
  2.8055  1.3652  1.3652  1.0294  1.0294  0.6591  0.6591  0.5521  0.5521  0.6046
  0.0607  0.1444  0.2765  0.2765  0.3078  0.2993  0.2993

 Free energy of the ion-electron system (eV)
  ---------------------------------------------------
  alpha Z        PSCENC =       353.14819109
  Ewald energy   TEWEN  =    200384.30822298
  -Hartree energ DENC   =   -214172.39212450
  -exchange      EXHF   =         0.00000000
  -V(xc)+E(xc)   XCENC  =        53.58318007
  PAW double counting   =     17095.71793772   -16557.49200361
  entropy T*S    EENTRO =        -0.02410767
  eigenvalues    EBANDS =     -1839.57076252
  atomic energy  EATOM  =     14566.38418648
  Solvation  Ediel_sol  =         0.00000000
  ---------------------------------------------------
  free energy    TOTEN  =      -116.33727997 eV

  energy without entropy =     -116.31317230  energy(sigma->0) =     -116.32522613


--------------------------------------------------------------------------------------------------------




--------------------------------------- Iteration      1(  23)  ---------------------------------------


    POTLOK:  cpu time    0.1154: real time    0.1154
    SETDIJ:  cpu time    0.0100: real time    0.0100
     EDDAV:  cpu time    2.9133: real time    2.9248
       DOS:  cpu time    0.0032: real time    0.0032
    CHARGE:  cpu time    0.1726: real time    0.1727
    MIXING:  cpu time    0.0060: real time    0.0060
    --------------------------------------------
      LOOP:  cpu time    3.2205: real time    3.2322

 eigenvalue-minimisations  :  1088
 total energy-change (2. order) :-0.2385368E+01  (-0.2975568E+00)
 number of electron     200.0000128 magnetization 
 augmentation part       63.0696215 magnetization 

 Broyden mixing:
  rms(total) = 0.26511E+01    rms(broyden)= 0.26511E+01
  rms(prec ) = 0.31389E+01
  weight for this iteration     100.00

 eigenvalues of (default mixing * dielectric matrix)
  average eigenvalue GAMMA=   0.6859
  2.7932  1.3676  1.3676  1.0386  1.0386  0.6699  0.6699  0.5506  0.5506  0.5876
  0.0607  0.1444  0.2771  0.2771  0.3045  0.2994  0.2994  0.0486

 Free energy of the ion-electron system (eV)
  ---------------------------------------------------
  alpha Z        PSCENC =       353.14819109
  Ewald energy   TEWEN  =    200384.30822298
  -Hartree energ DENC   =   -214134.33919180
  -exchange      EXHF   =         0.00000000
  -V(xc)+E(xc)   XCENC  =        54.15137644
  PAW double counting   =     17408.44788825   -16866.03487538
  entropy T*S    EENTRO =        -0.05417685
  eigenvalues    EBANDS =     -1884.73426928
  atomic energy  EATOM  =     14566.38418648
  Solvation  Ediel_sol  =         0.00000000
  ---------------------------------------------------
  free energy    TOTEN  =      -118.72264807 eV

  energy without entropy =     -118.66847122  energy(sigma->0) =     -118.69555965


--------------------------------------------------------------------------------------------------------




--------------------------------------- Iteration      1(  24)  ---------------------------------------


    POTLOK:  cpu time    0.1133: real time    0.1161
    SETDIJ:  cpu time    0.0098: real time    0.0099
     EDDAV:  cpu time    2.8759: real time    2.8792
       DOS:  cpu time    0.0013: real time    0.0013
    CHARGE:  cpu time    0.1596: real time    0.1597
    MIXING:  cpu time    0.0059: real time    0.0059
    --------------------------------------------
      LOOP:  cpu time    3.1657: real time    3.1720

 eigenvalue-minimisations  :  1160
 total energy-change (2. order) : 0.1022458E+01  (-0.4592505E-01)
 number of electron     200.0000123 magnetization 
 augmentation part       63.0440787 magnetization 

 Broyden mixing:
  rms(total) = 0.23817E+01    rms(broyden)= 0.23817E+01
  rms(prec ) = 0.27091E+01
  weight for this iteration     100.00

 eigenvalues of (default mixing * dielectric matrix)
  average eigenvalue GAMMA=   0.6775
  2.9235  1.3757  1.3757  1.0732  1.0732  0.6533  0.6533  0.5525  0.5525  0.5793
  0.0607  0.1444  0.2766  0.2766  0.3000  0.3000  0.3030  0.1990  0.1990

 Free energy of the ion-electron system (eV)
  ---------------------------------------------------
  alpha Z        PSCENC =       353.14819109
  Ewald energy   TEWEN  =    200384.30822298
  -Hartree energ DENC   =   -214158.48707897
  -exchange      EXHF   =         0.00000000
  -V(xc)+E(xc)   XCENC  =        54.34007778
  PAW double counting   =     17481.49529448   -16938.26176909
  entropy T*S    EENTRO =        -0.07717597
  eigenvalues    EBANDS =     -1860.55013843
  atomic energy  EATOM  =     14566.38418648
  Solvation  Ediel_sol  =         0.00000000
  ---------------------------------------------------
  free energy    TOTEN  =      -117.70018965 eV

  energy without entropy =     -117.62301368  energy(sigma->0) =     -117.66160166


--------------------------------------------------------------------------------------------------------




--------------------------------------- Iteration      1(  25)  ---------------------------------------


    POTLOK:  cpu time    0.1137: real time    0.1191
    SETDIJ:  cpu time    0.0095: real time    0.0095
     EDDAV:  cpu time    2.7760: real time    2.7791
       DOS:  cpu time    0.0014: real time    0.0014
    CHARGE:  cpu time    0.1655: real time    0.1657
    MIXING:  cpu time    0.0066: real time    0.0066
    --------------------------------------------
      LOOP:  cpu time    3.0727: real time    3.0813

 eigenvalue-minimisations  :  1112
 total energy-change (2. order) : 0.6721129E+00  (-0.2150888E-01)
 number of electron     200.0000120 magnetization 
 augmentation part       63.0347257 magnetization 

 Broyden mixing:
  rms(total) = 0.22452E+01    rms(broyden)= 0.22452E+01
  rms(prec ) = 0.24930E+01
  weight for this iteration     100.00

 eigenvalues of (default mixing * dielectric matrix)
  average eigenvalue GAMMA=   0.6952
  3.0832  1.3977  1.3977  1.1116  1.1116  0.6971  0.6971  0.5489  0.5489  0.4326
  0.4326  0.4869  0.0607  0.1444  0.3490  0.2757  0.2757  0.2971  0.2971  0.2585

 Free energy of the ion-electron system (eV)
  ---------------------------------------------------
  alpha Z        PSCENC =       353.14819109
  Ewald energy   TEWEN  =    200384.30822298
  -Hartree energ DENC   =   -214209.91830242
  -exchange      EXHF   =         0.00000000
  -V(xc)+E(xc)   XCENC  =        54.43718330
  PAW double counting   =     17575.77940678   -17032.62231794
  entropy T*S    EENTRO =        -0.08649313
  eigenvalues    EBANDS =     -1808.45815388
  atomic energy  EATOM  =     14566.38418648
  Solvation  Ediel_sol  =         0.00000000
  ---------------------------------------------------
  free energy    TOTEN  =      -117.02807674 eV

  energy without entropy =     -116.94158361  energy(sigma->0) =     -116.98483017


--------------------------------------------------------------------------------------------------------




--------------------------------------- Iteration      1(  26)  ---------------------------------------


    POTLOK:  cpu time    0.1136: real time    0.1137
    SETDIJ:  cpu time    0.0099: real time    0.0099
     EDDAV:  cpu time    2.6864: real time    2.6897
       DOS:  cpu time    0.0020: real time    0.0020
    CHARGE:  cpu time    0.1633: real time    0.1635
    MIXING:  cpu time    0.0069: real time    0.0069
    --------------------------------------------
      LOOP:  cpu time    2.9820: real time    2.9857

 eigenvalue-minimisations  :  1056
 total energy-change (2. order) : 0.3677346E-01  (-0.1711900E-01)
 number of electron     200.0000120 magnetization 
 augmentation part       63.0280798 magnetization 

 Broyden mixing:
  rms(total) = 0.22049E+01    rms(broyden)= 0.22049E+01
  rms(prec ) = 0.24442E+01
  weight for this iteration     100.00

 eigenvalues of (default mixing * dielectric matrix)
  average eigenvalue GAMMA=   0.7008
  3.1644  1.4277  1.4277  1.1540  1.1540  0.7398  0.7398  0.5924  0.5924  0.5415
  0.5415  0.0607  0.4581  0.1444  0.3497  0.2743  0.2743  0.2959  0.2959  0.2437
  0.2437

 Free energy of the ion-electron system (eV)
  ---------------------------------------------------
  alpha Z        PSCENC =       353.14819109
  Ewald energy   TEWEN  =    200384.30822298
  -Hartree energ DENC   =   -214256.36886290
  -exchange      EXHF   =         0.00000000
  -V(xc)+E(xc)   XCENC  =        54.53960948
  PAW double counting   =     17678.81185382   -17135.63363072
  entropy T*S    EENTRO =        -0.09070176
  eigenvalues    EBANDS =     -1762.09017175
  atomic energy  EATOM  =     14566.38418648
  Solvation  Ediel_sol  =         0.00000000
  ---------------------------------------------------
  free energy    TOTEN  =      -116.99130328 eV

  energy without entropy =     -116.90060152  energy(sigma->0) =     -116.94595240


--------------------------------------------------------------------------------------------------------




--------------------------------------- Iteration      1(  27)  ---------------------------------------


    POTLOK:  cpu time    0.1136: real time    0.1137
    SETDIJ:  cpu time    0.0099: real time    0.0099
     EDDAV:  cpu time    2.7891: real time    2.7922
       DOS:  cpu time    0.0014: real time    0.0014
    CHARGE:  cpu time    0.1817: real time    0.1819
    MIXING:  cpu time    0.0068: real time    0.0068
    --------------------------------------------
      LOOP:  cpu time    3.1025: real time    3.1060

 eigenvalue-minimisations  :  1088
 total energy-change (2. order) : 0.6082223E+00  (-0.2264757E-01)
 number of electron     200.0000120 magnetization 
 augmentation part       63.0336196 magnetization 

 Broyden mixing:
  rms(total) = 0.21168E+01    rms(broyden)= 0.21168E+01
  rms(prec ) = 0.23260E+01
  weight for this iteration     100.00

 eigenvalues of (default mixing * dielectric matrix)
  average eigenvalue GAMMA=   0.7189
  3.2663  1.4662  1.4662  1.3305  1.3305  0.6982  0.6982  0.7528  0.7528  0.5259
  0.5259  0.4578  0.0607  0.3595  0.3595  0.1444  0.2751  0.2751  0.2999  0.2920
  0.2920  0.1863

 Free energy of the ion-electron system (eV)
  ---------------------------------------------------
  alpha Z        PSCENC =       353.14819109
  Ewald energy   TEWEN  =    200384.30822298
  -Hartree energ DENC   =   -214320.83491824
  -exchange      EXHF   =         0.00000000
  -V(xc)+E(xc)   XCENC  =        54.62884356
  PAW double counting   =     17752.15751060   -17209.04613059
  entropy T*S    EENTRO =        -0.09273491
  eigenvalues    EBANDS =     -1697.03625199
  atomic energy  EATOM  =     14566.38418648
  Solvation  Ediel_sol  =         0.00000000
  ---------------------------------------------------
  free energy    TOTEN  =      -116.38308101 eV

  energy without entropy =     -116.29034610  energy(sigma->0) =     -116.33671355


--------------------------------------------------------------------------------------------------------




--------------------------------------- Iteration      1(  28)  ---------------------------------------


    POTLOK:  cpu time    0.1147: real time    0.1148
    SETDIJ:  cpu time    0.0099: real time    0.0099
     EDDAV:  cpu time    2.6530: real time    2.6590
       DOS:  cpu time    0.0013: real time    0.0013
    CHARGE:  cpu time    0.1768: real time    0.1770
    MIXING:  cpu time    0.0147: real time    0.0148
    --------------------------------------------
      LOOP:  cpu time    2.9705: real time    2.9768

 eigenvalue-minimisations  :  1032
 total energy-change (2. order) : 0.1560865E+01  (-0.1643229E+00)
 number of electron     200.0000109 magnetization 
 augmentation part       62.9749333 magnetization 

 Broyden mixing:
  rms(total) = 0.18426E+01    rms(broyden)= 0.18426E+01
  rms(prec ) = 0.18949E+01
  weight for this iteration     100.00

 eigenvalues of (default mixing * dielectric matrix)
  average eigenvalue GAMMA=   0.6888
[...]
     88      -2.1219      2.00000
     89      -2.0987      2.00000
     90      -2.0978      2.00000
     91      -1.7995      2.00000
     92      -1.7994      2.00000
     93      -1.4887      2.00000
     94      -1.4884      2.00000
     95      -1.3849      2.00000
     96      -1.3843      2.00000
     97      -1.2829      2.00000
     98      -1.2829      2.00000
     99      -0.9757      1.99054
    100      -0.9754      1.99034
    101      -0.9146      1.61366
    102      -0.9145      1.61293
    103      -0.8921      1.18160
    104      -0.8918      1.17550
    105      -0.6663      0.00000
    106      -0.6662      0.00000
    107       0.0291      0.00000
    108       0.0295      0.00000
    109       0.8625      0.00000
    110       0.8632      0.00000
    111       1.1955      0.00000
    112       1.1961      0.00000
    113       1.7743      0.00000
    114       1.7747      0.00000
    115       1.9019      0.00000
    116       1.9026      0.00000
    117       3.1296      0.00000
    118       3.1306      0.00000
    119       3.7279      0.00000
    120       3.7286      0.00000

 k-point     4 :       0.5000    0.5000    0.0000
  band No.  band energies     occupation 
      1      -8.3920      2.00000
      2      -8.3916      2.00000
      3      -7.6397      2.00000
      4      -7.6395      2.00000
      5      -6.8697      2.00000
      6      -6.8696      2.00000
      7      -6.4539      2.00000
      8      -6.4536      2.00000
      9      -6.4301      2.00000
     10      -6.4299      2.00000
     11      -6.4212      2.00000
     12      -6.4210      2.00000
     13      -6.1743      2.00000
     14      -6.1741      2.00000
     15      -6.0777      2.00000
     16      -6.0776      2.00000
     17      -5.9183      2.00000
     18      -5.9179      2.00000
     19      -5.7578      2.00000
     20      -5.7570      2.00000
     21      -5.6420      2.00000
     22      -5.6418      2.00000
     23      -5.5500      2.00000
     24      -5.5499      2.00000
     25      -5.3280      2.00000
     26      -5.3277      2.00000
     27      -5.2689      2.00000
     28      -5.2686      2.00000
     29      -5.0918      2.00000
     30      -5.0915      2.00000
     31      -4.9938      2.00000
     32      -4.9937      2.00000
     33      -4.8819      2.00000
     34      -4.8815      2.00000
     35      -4.8648      2.00000
     36      -4.8642      2.00000
     37      -4.8408      2.00000
     38      -4.8407      2.00000
     39      -4.4763      2.00000
     40      -4.4760      2.00000
     41      -4.4630      2.00000
     42      -4.4626      2.00000
     43      -4.4289      2.00000
     44      -4.4288      2.00000
     45      -4.1998      2.00000
     46      -4.1996      2.00000
     47      -4.1192      2.00000
     48      -4.1186      2.00000
     49      -3.8961      2.00000
     50      -3.8960      2.00000
     51      -3.8609      2.00000
     52      -3.8603      2.00000
     53      -3.7695      2.00000
     54      -3.7692      2.00000
     55      -3.7673      2.00000
     56      -3.7669      2.00000
     57      -3.7382      2.00000
     58      -3.7381      2.00000
     59      -3.6312      2.00000
     60      -3.6310      2.00000
     61      -3.5674      2.00000
     62      -3.5671      2.00000
     63      -3.4356      2.00000
     64      -3.4352      2.00000
     65      -3.2288      2.00000
     66      -3.2284      2.00000
     67      -3.1614      2.00000
     68      -3.1612      2.00000
     69      -3.0384      2.00000
     70      -3.0381      2.00000
     71      -2.8322      2.00000
     72      -2.8321      2.00000
     73      -2.8095      2.00000
     74      -2.8094      2.00000
     75      -2.7795      2.00000
     76      -2.7793      2.00000
     77      -2.5517      2.00000
     78      -2.5512      2.00000
     79      -2.5111      2.00000
     80      -2.5108      2.00000
     81      -2.3579      2.00000
     82      -2.3577      2.00000
     83      -2.3191      2.00000
     84      -2.3189      2.00000
     85      -2.2154      2.00000
     86      -2.2152      2.00000
     87      -2.1235      2.00000
     88      -2.1232      2.00000
     89      -2.1134      2.00000
     90      -2.1133      2.00000
     91      -1.8084      2.00000
     92      -1.8083      2.00000
     93      -1.4910      2.00000
     94      -1.4908      2.00000
     95      -1.3865      2.00000
     96      -1.3864      2.00000
     97      -1.2907      2.00000
     98      -1.2905      2.00000
     99      -0.9658      1.97932
    100      -0.9657      1.97921
    101      -0.8992      1.33356
    102      -0.8991      1.33072
    103      -0.8854      1.03358
    104      -0.8853      1.03062
    105      -0.6964      0.00000
    106      -0.6964      0.00000
    107       0.0005      0.00000
    108       0.0005      0.00000
    109       0.8584      0.00000
    110       0.8584      0.00000
    111       1.1906      0.00000
    112       1.1909      0.00000
    113       1.7542      0.00000
    114       1.7543      0.00000
    115       1.9015      0.00000
    116       1.9017      0.00000
    117       3.1430      0.00000
    118       3.1433      0.00000
    119       3.6928      0.00000
    120       3.6928      0.00000


--------------------------------------------------------------------------------------------------------


 soft charge-density along one line, spin component            1
         0         1         2         3         4         5         6         7         8         9
 total charge-density along one line
 
 pseudopotential strength for first ion, spin component:            1
 -6.916  -0.007  -0.001   0.003  -0.001  -7.005  -0.007  -0.001
 -0.007  -6.742  -0.001   0.003   0.011  -0.007  -6.835  -0.001
 -0.001  -0.001  -6.733  -0.002  -0.001  -0.001  -0.001  -6.827
  0.003   0.003  -0.002  -6.738  -0.007   0.003   0.003  -0.002
 -0.001   0.011  -0.001  -0.007  -6.915  -0.001   0.011  -0.001
 -7.005  -0.007  -0.001   0.003  -0.001  -7.077  -0.007  -0.001
 -0.007  -6.835  -0.001   0.003   0.011  -0.007  -6.912  -0.001
 -0.001  -0.001  -6.827  -0.002  -0.001  -0.001  -0.001  -6.905
  0.003   0.003  -0.002  -6.832  -0.007   0.003   0.003  -0.002
 -0.001   0.011  -0.001  -0.007  -7.004  -0.001   0.011  -0.001
 -0.001   0.002  -0.050   0.004  -0.001  -0.001   0.002  -0.050
 -0.001   0.003  -0.074   0.006  -0.001  -0.001   0.003  -0.073
 -0.002   0.003   0.001   0.000   0.002  -0.002   0.002   0.001
  0.000  -0.001   0.007  -0.002   0.000   0.000  -0.001   0.007
 -0.000   0.000   0.001   0.003  -0.002  -0.000   0.000   0.001
 -0.002   0.002   0.001   0.000   0.002  -0.002   0.001   0.001
  0.000  -0.001   0.007  -0.002   0.000   0.000  -0.001   0.007
 -0.001   0.000   0.001   0.002  -0.002  -0.000   0.000   0.001
 total augmentation occupancy for first ion, spin component:            1
  2.288  -0.073   0.019   0.065  -0.017  -1.328   0.032  -0.003   0.031   0.001   0.003  -0.002  -0.012  -0.000  -0.041   0.002
 -0.073   4.075  -0.006   0.039   0.149   0.032  -2.062   0.015  -0.017  -0.015  -0.046   0.008   0.179  -0.006  -0.001  -0.007
  0.019  -0.006   3.804  -0.015   0.005  -0.004   0.016  -2.222   0.029   0.001   1.068  -0.188   0.002   0.254   0.005  -0.000
  0.065   0.039  -0.015   4.119  -0.073   0.022  -0.017   0.028  -2.083   0.032  -0.084   0.015  -0.001  -0.010   0.179  -0.001
 -0.017   0.149   0.005  -0.073   2.312   0.001  -0.006   0.001   0.032  -1.332   0.001  -0.001  -0.027  -0.000  -0.012  -0.001
 -1.328   0.032  -0.004   0.022   0.001   1.963  -0.001  -0.010  -0.091   0.012   0.002  -0.001   0.004   0.003   0.046   0.003
  0.032  -2.062   0.016  -0.017  -0.006  -0.001   1.936  -0.022   0.002  -0.089   0.037  -0.004  -0.181   0.007   0.003   0.014
 -0.003   0.015  -2.222   0.028   0.001  -0.010  -0.022   2.398  -0.037  -0.007  -0.860   0.100   0.004  -0.295   0.006  -0.003
  0.031  -0.017   0.029  -2.083   0.032  -0.091   0.002  -0.037   1.942  -0.001   0.067  -0.008   0.003   0.011  -0.179  -0.001
  0.001  -0.015   0.001   0.032  -1.332   0.012  -0.089  -0.007  -0.001   1.952   0.002  -0.001   0.042   0.001   0.004  -0.009
  0.003  -0.046   1.068  -0.084   0.001   0.002   0.037  -0.860   0.067   0.002   2.283  -0.461  -0.006  -0.143  -0.011   0.005
 -0.002   0.008  -0.188   0.015  -0.001  -0.001  -0.004   0.100  -0.008  -0.001  -0.461   0.112   0.000   0.057   0.000  -0.001
 -0.012   0.179   0.002  -0.001  -0.027   0.004  -0.181   0.004   0.003   0.042  -0.006   0.000   0.221   0.003  -0.000  -0.014
 -0.000  -0.006   0.254  -0.010  -0.000   0.003   0.007  -0.295   0.011   0.001  -0.143   0.057   0.003   0.124   0.005  -0.000
 -0.041  -0.001   0.005   0.179  -0.012   0.046   0.003   0.006  -0.179   0.004  -0.011   0.000  -0.000   0.005   0.221   0.000
  0.002  -0.007  -0.000  -0.001  -0.001   0.003   0.014  -0.003  -0.001  -0.009   0.005  -0.001  -0.014  -0.000   0.000   0.001
 -0.000  -0.001  -0.008  -0.001  -0.000  -0.001   0.000   0.014   0.000  -0.000   0.012  -0.004  -0.000  -0.006  -0.001   0.000
  0.001  -0.001  -0.001  -0.008   0.002  -0.006  -0.001  -0.005   0.014   0.003   0.009  -0.001   0.000  -0.000  -0.014  -0.000


------------------------ aborting loop because EDIFF is reached ----------------------------------------





 total charge

# of ion       s       p       d       tot
------------------------------------------
    1        0.624   0.367   8.014   9.005
    2        0.624   0.368   8.014   9.005
    3        0.624   0.367   8.014   9.005
    4        0.624   0.367   8.014   9.005
    5        0.599   0.495   8.021   9.115
    6        0.599   0.495   8.021   9.115
    7        0.599   0.495   8.022   9.115
    8        0.599   0.495   8.022   9.115
    9        0.615   0.511   8.034   9.160
   10        0.615   0.511   8.034   9.160
   11        0.615   0.510   8.034   9.160
   12        0.615   0.511   8.034   9.160
   13        0.605   0.520   8.038   9.163
   14        0.605   0.520   8.038   9.163
   15        0.605   0.520   8.038   9.163
   16        0.605   0.520   8.038   9.163
   17        0.629   0.393   8.023   9.044
   18        0.629   0.393   8.023   9.044
   19        0.629   0.393   8.023   9.044
   20        0.629   0.393   8.023   9.044
--------------------------------------------------
tot         12.291   9.141 160.519 181.951
 
    CHARGE:  cpu time    0.1737: real time    0.1739
    FORLOC:  cpu time    0.0135: real time    0.0135
    FORNL :  cpu time    0.6748: real time    0.6802
    FORCOR:  cpu time    0.1282: real time    0.1283
    FORHAR:  cpu time    0.0435: real time    0.0436
    MIXING:  cpu time    0.0038: real time    0.0038
    OFIELD:  cpu time    0.0000: real time    0.0000

 VOLUME and BASIS-vectors are now :
 -----------------------------------------------------------------------------
  energy-cutoff  :      420.00
  volume of cell :     1076.70
      direct lattice vectors                 reciprocal lattice vectors
     5.633542000  0.000000000  0.202887000     0.177508218 -0.102307277  0.000000000
     2.813117000  4.880898000  0.202887000     0.000000000  0.204880331  0.000000000
     0.000000000  0.000000000 39.157200000    -0.000919731 -0.000531466  0.025538088

  length of vectors
     5.637194213  5.637193954 39.157200000     0.204880322  0.204880331  0.025560170


 FORCES acting on ions
    electron-ion (+dipol)            ewald-force                    non-local-force                 convergence-correction
 -----------------------------------------------------------------------------------------------
   0.132E+03 0.764E+02 -.367E+04   -.132E+03 -.762E+02 0.367E+04   -.176E+00 -.101E+00 0.100E+01   0.187E-02 -.642E-02 0.223E-01
   0.132E+03 0.764E+02 -.367E+04   -.132E+03 -.763E+02 0.367E+04   -.174E+00 -.105E+00 0.101E+01   0.230E-02 -.252E-02 0.291E-01
   0.132E+03 0.764E+02 -.367E+04   -.132E+03 -.763E+02 0.367E+04   -.165E+00 -.101E+00 0.995E+00   -.215E-02 0.154E-02 0.176E-01
   0.132E+03 0.765E+02 -.367E+04   -.132E+03 -.764E+02 0.367E+04   -.168E+00 -.105E+00 0.100E+01   -.516E-02 0.259E-02 0.197E-01
   0.665E+02 0.383E+02 -.185E+04   -.663E+02 -.381E+02 0.185E+04   -.160E+00 -.909E-01 0.701E+00   -.113E-01 -.796E-02 0.350E+00
   0.665E+02 0.383E+02 -.185E+04   -.662E+02 -.382E+02 0.185E+04   -.171E+00 -.961E-01 0.709E+00   -.997E-02 -.328E-02 0.355E+00
   0.665E+02 0.382E+02 -.185E+04   -.662E+02 -.381E+02 0.185E+04   -.155E+00 -.867E-01 0.701E+00   -.122E-01 -.583E-02 0.355E+00
   0.665E+02 0.383E+02 -.185E+04   -.663E+02 -.382E+02 0.185E+04   -.169E+00 -.917E-01 0.700E+00   -.141E-01 -.476E-02 0.352E+00
   0.118E+01 0.690E+00 -.566E+01   -.104E+01 -.609E+00 0.518E+01   -.626E-01 -.427E-01 -.103E+00   -.258E-01 -.151E-01 0.588E+00
   0.111E+01 0.806E+00 -.573E+01   -.972E+00 -.728E+00 0.525E+01   -.659E-01 -.480E-01 -.103E+00   -.232E-01 -.133E-01 0.593E+00
   0.951E+00 0.549E+00 -.508E+01   -.813E+00 -.470E+00 0.460E+01   -.568E-01 -.378E-01 -.802E-01   -.230E-01 -.113E-01 0.578E+00
   0.120E+01 0.881E+00 -.569E+01   -.106E+01 -.802E+00 0.521E+01   -.647E-01 -.482E-01 -.102E+00   -.271E-01 -.136E-01 0.588E+00
   -.663E+02 -.382E+02 0.184E+04   0.665E+02 0.383E+02 -.184E+04   -.175E+00 -.101E+00 0.224E+00   -.156E-01 -.820E-02 0.438E+00
   -.663E+02 -.384E+02 0.184E+04   0.665E+02 0.385E+02 -.184E+04   -.175E+00 -.990E-01 0.225E+00   -.159E-01 -.101E-01 0.439E+00
   -.663E+02 -.383E+02 0.184E+04   0.665E+02 0.384E+02 -.184E+04   -.175E+00 -.994E-01 0.226E+00   -.159E-01 -.828E-02 0.438E+00
   -.662E+02 -.384E+02 0.184E+04   0.664E+02 0.385E+02 -.184E+04   -.176E+00 -.987E-01 0.224E+00   -.157E-01 -.987E-02 0.438E+00
   -.133E+03 -.766E+02 0.369E+04   0.133E+03 0.767E+02 -.369E+04   -.557E-01 -.319E-01 -.141E+01   -.123E-02 -.292E-02 0.808E-01
   -.133E+03 -.766E+02 0.369E+04   0.133E+03 0.767E+02 -.369E+04   -.563E-01 -.321E-01 -.141E+01   -.132E-02 -.228E-02 0.805E-01
   -.133E+03 -.766E+02 0.369E+04   0.133E+03 0.767E+02 -.369E+04   -.554E-01 -.317E-01 -.140E+01   -.464E-02 -.119E-02 0.828E-01
   -.133E+03 -.766E+02 0.369E+04   0.133E+03 0.767E+02 -.369E+04   -.563E-01 -.316E-01 -.140E+01   -.450E-02 -.415E-03 0.821E-01
 -----------------------------------------------------------------------------------------------
   0.354E+01 0.202E+01 -.751E+01   0.284E-13 0.711E-13 0.364E-11   -.251E+01 -.148E+01 0.171E+01   -.224E+00 -.123E+00 0.593E+01
 
 
 POSITION                                       TOTAL-FORCE (eV/Angst)
 -----------------------------------------------------------------------------------
      0.06109      0.03637     24.32539        -0.014953     -0.001659      0.008262
      1.46759      2.47699     24.42643        -0.014603     -0.004116      0.018975
      2.87748      0.03646     24.42719        -0.004750      0.000587     -0.000802
      4.28414      2.47702     24.52848        -0.008792     -0.002951      0.003232
      1.57148      0.90416     22.00026         0.011510      0.000317      0.004861
      2.97846      3.34480     22.10155        -0.001311     -0.006488      0.011128
      4.38804      0.90409     22.10178         0.017338      0.004359      0.005561
      5.79527      3.34424     22.20316         0.002066     -0.003590      0.002999
      3.11722      1.80280     19.75532         0.010703      0.001661     -0.001631
      4.52450      4.24330     19.85692         0.003995     -0.004444      0.000602
      5.93359      1.80215     19.85567         0.018269      0.008973      0.011890
      7.34105      4.24317     19.95831         0.005755     -0.003428     -0.000444
      0.37265      0.21534     17.29312        -0.020615     -0.008885      0.868344
      1.77921      2.65578     17.39456        -0.020477     -0.006477      0.869689
      3.18942      0.21534     17.39456        -0.020914     -0.007189      0.870384
      4.59598      2.65578     17.49601        -0.022314     -0.006120      0.868950
      1.86323      1.07667     15.06138         0.014808      0.009929     -0.885531
      3.26979      3.51712     15.16283         0.014651      0.009803     -0.886112
      4.68000      1.07667     15.16283         0.014815      0.009845     -0.885003
      6.08656      3.51712     15.26427         0.014819      0.009875     -0.885355
 -----------------------------------------------------------------------------------
    total drift:                                0.804259      0.419914      0.124463


--------------------------------------------------------------------------------------------------------



  FREE ENERGIE OF THE ION-ELECTRON SYSTEM (eV)
  ---------------------------------------------------
  free  energy   TOTEN  =      -107.08303988 eV

  energy  without entropy=     -106.96219173  energy(sigma->0) =     -107.02261581
 
 d Force = 0.1510917E-03[ 0.287E-04, 0.274E-03]  d Energy = 0.2874339E-03-0.136E-03
 d Force =-0.2932976E+01[-0.293E+01,-0.293E+01]  d Ewald  =-0.2932976E+01 0.927E-07


--------------------------------------------------------------------------------------------------------


    POTLOK:  cpu time    0.1257: real time    0.1258


--------------------------------------------------------------------------------------------------------


 Conjugate gradient step on ions:
 trial-energy change:   -0.000287  1 .order   -0.000151   -0.000274   -0.000029
  (g-gl).g = 0.307E-03      g.g   = 0.296E-03  gl.gl    = 0.812E-03
 g(Force)  = 0.296E-03   g(Stress)= 0.000E+00 ortho     =-0.323E-04
 gamma     =   0.37823
 trial     =   0.96377
 opt step  =   0.98926  (harmonic =   1.07666) maximal distance =0.00285385
 next E    =  -107.083040   (d E  =  -0.00029)


--------------------------------------------------------------------------------------------------------


  
 reached required accuracy - stopping structural energy minimisation
     LOOP+:  cpu time   34.5157: real time   34.6194
    4ORBIT:  cpu time    0.0000: real time    0.0000



 total charge

# of ion       s       p       d       tot
------------------------------------------
    1        0.624   0.367   8.014   9.005
    2        0.624   0.368   8.014   9.005
    3        0.624   0.367   8.014   9.005
    4        0.624   0.367   8.014   9.005
    5        0.599   0.495   8.021   9.115
    6        0.599   0.495   8.021   9.115
    7        0.599   0.495   8.022   9.115
    8        0.599   0.495   8.022   9.115
    9        0.615   0.511   8.034   9.160
   10        0.615   0.511   8.034   9.160
   11        0.615   0.510   8.034   9.160
   12        0.615   0.511   8.034   9.160
   13        0.605   0.520   8.038   9.163
   14        0.605   0.520   8.038   9.163
   15        0.605   0.520   8.038   9.163
   16        0.605   0.520   8.038   9.163
   17        0.629   0.393   8.023   9.044
   18        0.629   0.393   8.023   9.044
   19        0.629   0.393   8.023   9.044
   20        0.629   0.393   8.023   9.044
--------------------------------------------------
tot         12.291   9.141 160.519 181.951
 

 total amount of memory used by VASP MPI-rank0    52184. kBytes
=======================================================================

   base      :      30000. kBytes
   nonlr-proj:       1966. kBytes
   fftplans  :       4044. kBytes
   grid      :       5768. kBytes
   one-center:         77. kBytes
   wavefun   :      10329. kBytes
 
  
  
 General timing and accounting informations for this job:
 ========================================================
  
                  Total CPU time used (sec):     2165.465
                            User time (sec):     2162.993
                          System time (sec):        2.473
                         Elapsed time (sec):     2179.726
  
                   Maximum memory used (kb):      101892.
                   Average memory used (kb):          N/A
  
                          Minor page faults:       338046
                          Major page faults:       131871
                 Voluntary context switches:         6582
