<?xml version="1.0" encoding="ISO-8859-1"?>
<modeling>
 <generator>
  <i name="program" type="string">vasp </i>
  <i name="version" type="string">6.2.0  </i>
  <i name="subversion" type="string">18Jan21 (build Feb  1 2022 01:28:57) complex                          parallel </i>
  <i name="platform" type="string">LinuxPGI </i>
  <i name="date" type="string">2022 05 17 </i>
  <i name="time" type="string">01:31:15 </i>
 </generator>
 <incar>
  <i type="string" name="PREC">Normal</i>
  <i type="string" name="ALGO">38</i>
  <i type="int" name="ISPIN">     1</i>
  <i name="AMIX">      0.20000000</i>
  <i name="BMIX">      0.00100000</i>
  <i name="AMIN">      0.01000000</i>
  <i type="int" name="NELM">    80</i>
  <i type="int" name="NELMIN">     8</i>
  <i type="int" name="IBRION">     2</i>
  <i name="EDIFF">      0.00000100</i>
  <i name="EDIFFG">     -0.03000000</i>
  <i type="int" name="NSW">   300</i>
  <i type="int" name="ISIF">     0</i>
  <i type="int" name="ISYM">     0</i>
  <i name="SYMPREC">      0.00001000</i>
  <i name="ENCUT">    420.00000000</i>
  <i type="logical" name="LREAL"> T  </i>
  <i type="int" name="ISMEAR">     0</i>
  <i name="SIGMA">      0.05000000</i>
  <i type="logical" name="LWAVE"> F  </i>
  <i type="logical" name="LVTOT"> F  </i>
  <i type="int" name="LORBIT">    11</i>
  <i type="logical" name="LASPH"> F  </i>
  <i type="string" name="GGA">Rp</i>
 </incar>
 <primitive_cell>
  <structure name="primitive_cell" >
   <crystal>
    <varray name="basis" >
     <v>       5.63354200       0.00000000       0.20288700 </v>
     <v>       2.81311700       4.88089800       0.20288700 </v>
     <v>       0.00000000       0.00000000      39.15720000 </v>
    </varray>
    <i name="volume">   1076.69549949 </i>
    <varray name="rec_basis" >
     <v>       0.17750822      -0.10230728       0.00000000 </v>
     <v>       0.00000000       0.20488033       0.00000000 </v>
     <v>      -0.00091973      -0.00053147       0.02553809 </v>
    </varray>
   </crystal>
   <varray name="positions" >
    <v>       0.01468107       0.01471785       0.61840826 </v>
    <v>       0.01468426       0.51471315       0.61840819 </v>
    <v>       0.51467911       0.01471170       0.61841180 </v>
    <v>       0.51468156       0.51471193       0.61841569 </v>
    <v>       0.19068917       0.19065604       0.55819065 </v>
    <v>       0.19073104       0.69064119       0.55819185 </v>
    <v>       0.69073021       0.19067044       0.55818990 </v>
    <v>       0.69072186       0.69062767       0.55818988 </v>
    <v>       0.36820853       0.36818810       0.49984260 </v>
    <v>       0.36820532       0.86818085       0.49984284 </v>
    <v>       0.86817813       0.36819762       0.49984207 </v>
    <v>       0.86819790       0.86818449       0.49984600 </v>
    <v>       0.04411800       0.04411800       0.44117600 </v>
    <v>       0.04411800       0.54411800       0.44117600 </v>
    <v>       0.54411800       0.04411800       0.44117600 </v>
    <v>       0.54411800       0.54411800       0.44117600 </v>
    <v>       0.22058800       0.22058800       0.38235300 </v>
    <v>       0.22058800       0.72058800       0.38235300 </v>
    <v>       0.72058800       0.22058800       0.38235300 </v>
    <v>       0.72058800       0.72058800       0.38235300 </v>
   </varray>
  </structure>
  <varray name="primitive_index" >
   <v type="int" >        1 </v>
   <v type="int" >        2 </v>
   <v type="int" >        3 </v>
   <v type="int" >        4 </v>
   <v type="int" >        5 </v>
   <v type="int" >        6 </v>
   <v type="int" >        7 </v>
   <v type="int" >        8 </v>
   <v type="int" >        9 </v>
   <v type="int" >       10 </v>
   <v type="int" >       11 </v>
   <v type="int" >       12 </v>
   <v type="int" >       13 </v>
   <v type="int" >       14 </v>
   <v type="int" >       15 </v>
   <v type="int" >       16 </v>
   <v type="int" >       17 </v>
   <v type="int" >       18 </v>
   <v type="int" >       19 </v>
   <v type="int" >       20 </v>
  </varray>
 </primitive_cell>
 <kpoints>
  <generation param="Gamma">
   <v type="int" name="divisions">       2        2        1 </v>
   <v name="usershift">      0.00000000       0.00000000       0.00000000 </v>
   <v name="genvec1">      0.50000000       0.00000000       0.00000000 </v>
   <v name="genvec2">      0.00000000       0.50000000       0.00000000 </v>
   <v name="genvec3">      0.00000000       0.00000000       1.00000000 </v>
   <v name="shift">      0.00000000       0.00000000       0.00000000 </v>
  </generation>
  <varray name="kpointlist" >
   <v>       0.00000000       0.00000000       0.00000000 </v>
   <v>       0.50000000       0.00000000       0.00000000 </v>
   <v>       0.00000000       0.50000000       0.00000000 </v>
   <v>       0.50000000       0.50000000       0.00000000 </v>
  </varray>
  <varray name="weights" >
   <v>       0.25000000 </v>
   <v>       0.25000000 </v>
   <v>       0.25000000 </v>
   <v>       0.25000000 </v>
  </varray>
 </kpoints>
 <parameters>
  <separator name="general" >
   <i type="string" name="SYSTEM">unknown system</i>
   <i type="logical" name="LCOMPAT"> F  </i>
  </separator>
  <separator name="electronic" >
   <i type="string" name="PREC">normal</i>
   <i name="ENMAX">    420.00000000</i>
   <i name="ENAUG">    358.96600000</i>
   <i name="EDIFF">      0.00000100</i>
   <i type="int" name="IALGO">    38</i>
   <i type="int" name="IWAVPR">    11</i>
   <i type="int" name="NBANDS">   120</i>
   <i type="int" name="NBANDSLOW">    -1</i>
   <i type="int" name="NBANDSHIGH">    -1</i>
   <i name="NELECT">    200.00000000</i>
   <i type="int" name="TURBO">     0</i>
   <i type="int" name="IRESTART">     0</i>
   <i type="int" name="NREBOOT">     0</i>
   <i type="int" name="NMIN">     0</i>
   <i name="EREF">      0.00000000</i>
   <separator name="electronic smearing" >
    <i type="int" name="ISMEAR">     0</i>
    <i name="SIGMA">      0.05000000</i>
    <i name="KSPACING">      0.50000000</i>
    <i type="logical" name="KGAMMA"> T  </i>
    <i type="logical" name="KBLOWUP"> T  </i>
   </separator>
   <separator name="electronic projectors" >
    <i type="logical" name="LREAL"> T  </i>
    <v name="ROPT">      0.00000000</v>
    <i type="int" name="LMAXPAW">  -100</i>
    <i type="int" name="LMAXMIX">     2</i>
    <i type="logical" name="NLSPLINE"> F  </i>
   </separator>
   <separator name="electronic startup" >
    <i type="int" name="ISTART">     0</i>
    <i type="int" name="ICHARG">     2</i>
    <i type="int" name="INIWAV">     1</i>
   </separator>
   <separator name="electronic spin" >
    <i type="int" name="ISPIN">     1</i>
    <i type="logical" name="LNONCOLLINEAR"> F  </i>
    <v name="MAGMOM">      1.00000000      1.00000000      1.00000000      1.00000000      1.00000000      1.00000000      1.00000000      1.00000000      1.00000000      1.00000000      1.00000000      1.00000000      1.00000000      1.00000000      1.00000000      1.00000000      1.00000000      1.00000000      1.00000000      1.00000000
</v>
    <i name="NUPDOWN">     -1.00000000</i>
    <i type="logical" name="LSORBIT"> F  </i>
    <v name="SAXIS">      0.00000000      0.00000000      1.00000000</v>
    <i type="logical" name="LSPIRAL"> F  </i>
    <v name="QSPIRAL">      0.00000000      0.00000000      0.00000000</v>
    <i type="logical" name="LZEROZ"> F  </i>
   </separator>
   <separator name="electronic exchange-correlation" >
    <i type="logical" name="LASPH"> F  </i>
    <i type="logical" name="LMETAGGA"> F  </i>
   </separator>
   <separator name="electronic convergence" >
    <i type="int" name="NELM">    80</i>
    <i type="int" name="NELMDL">     0</i>
    <i type="int" name="NELMIN">     8</i>
    <i name="ENINI">    420.00000000</i>
    <separator name="electronic convergence detail" >
     <i type="logical" name="LDIAG"> T  </i>
     <i type="logical" name="LSUBROT"> F  </i>
     <i name="WEIMIN">      0.00100000</i>
     <i name="EBREAK">      0.00000000</i>
     <i name="DEPER">      0.30000000</i>
     <i type="int" name="NRMM">     4</i>
     <i name="TIME">      0.40000000</i>
    </separator>
   </separator>
   <separator name="electronic mixer" >
    <i name="AMIX">      0.20000000</i>
    <i name="BMIX">      0.00100000</i>
    <i name="AMIN">      0.01000000</i>
    <i name="AMIX_MAG">      0.80000000</i>
    <i name="BMIX_MAG">      0.00100000</i>
    <separator name="electronic mixer details" >
     <i type="int" name="IMIX">     4</i>
     <i type="logical" name="MIXFIRST"> F  </i>
     <i type="int" name="MAXMIX">   -45</i>
     <i name="WC">    100.00000000</i>
     <i type="int" name="INIMIX">     1</i>
     <i type="int" name="MIXPRE">     1</i>
     <i type="int" name="MREMOVE">     5</i>
    </separator>
   </separator>
   <separator name="electronic dipolcorrection" >
    <i type="logical" name="LDIPOL"> F  </i>
    <i type="logical" name="LMONO"> F  </i>
    <i type="int" name="IDIPOL">     0</i>
    <i name="EPSILON">      1.00000000</i>
    <v name="DIPOL">   -100.00000000   -100.00000000   -100.00000000</v>
    <i name="EFIELD">      0.00000000</i>
   </separator>
  </separator>
  <separator name="grids" >
   <i type="int" name="NGX">    28</i>
   <i type="int" name="NGY">    28</i>
   <i type="int" name="NGZ">   196</i>
   <i type="int" name="NGXF">    56</i>
   <i type="int" name="NGYF">    56</i>
   <i type="int" name="NGZF">   392</i>
   <i type="logical" name="ADDGRID"> F  </i>
  </separator>
  <separator name="ionic" >
   <i type="int" name="NSW">   300</i>
   <i type="int" name="IBRION">     2</i>
   <i type="int" name="MDALGO">     0</i>
   <i type="int" name="ISIF">     0</i>
   <i name="PSTRESS">      0.00000000</i>
   <i name="EDIFFG">     -0.03000000</i>
   <i type="int" name="NFREE">     1</i>
   <i name="POTIM">      0.50000000</i>
   <i name="SMASS">     -3.00000000</i>
   <i name="SCALEE">      1.00000000</i>
  </separator>
  <separator name="ionic md" >
   <i name="TEBEG">      0.00010000</i>
   <i name="TEEND">      0.00010000</i>
   <i type="int" name="NBLOCK">     1</i>
   <i type="int" name="KBLOCK">   300</i>
   <i type="int" name="NPACO">   256</i>
   <i name="APACO">     16.00000000</i>
  </separator>
  <separator name="symmetry" >
   <i type="int" name="ISYM">     0</i>
   <i name="SYMPREC">      0.00001000</i>
  </separator>
  <separator name="dos" >
   <i type="int" name="LORBIT">    11</i>
   <v name="RWIGS">     -1.00000000</v>
   <i type="int" name="NEDOS">   301</i>
   <i name="EMIN">     10.00000000</i>
   <i name="EMAX">    -10.00000000</i>
   <i name="EFERMI">      0.00000000</i>
  </separator>
  <separator name="writing" >
   <i type="int" name="NWRITE">     2</i>
   <i type="logical" name="LWAVE"> F  </i>
   <i type="logical" name="LDOWNSAMPLE"> F  </i>
   <i type="logical" name="LCHARG"> T  </i>
   <i type="logical" name="LPARD"> F  </i>
   <i type="logical" name="LVTOT"> F  </i>
   <i type="logical" name="LVHAR"> F  </i>
   <i type="logical" name="LELF"> F  </i>
   <i type="logical" name="LOPTICS"> F  </i>
   <v name="STM">      0.00000000      0.00000000      0.00000000      0.00000000      0.00000000      0.00000000      0.00000000</v>
  </separator>
  <separator name="performance" >
   <i type="int" name="NPAR">     4</i>
   <i type="int" name="NSIM">     4</i>
   <i type="int" name="NBLK">    -1</i>
   <i type="logical" name="LPLANE"> T  </i>
   <i type="logical" name="LSCALAPACK"> T  </i>
   <i type="logical" name="LSCAAWARE"> F  </i>
   <i type="logical" name="LSCALU"> F  </i>
   <i type="logical" name="LASYNC"> F  </i>
   <i type="logical" name="LORBITALREAL"> F  </i>
  </separator>
  <separator name="miscellaneous" >
   <i type="int" name="IDIOT">     3</i>
   <i type="int" name="PHON_NSTRUCT">    -1</i>
   <i type="logical" name="LMUSIC"> F  </i>
   <v name="POMASS">    195.08000000</v>
   <v name="DARWINR">      0.00000000</v>
   <v name="DARWINV">      1.00000000</v>
   <i type="logical" name="LCORR"> T  </i>
  </separator>
  <i type="logical" name="GGA_COMPAT"> T  </i>
  <i type="logical" name="LBERRY"> F  </i>
  <i type="int" name="ICORELEVEL">     0</i>
  <i type="logical" name="LDAU"> F  </i>
  <i type="int" name="I_CONSTRAINED_M">     0</i>
  <separator name="electronic exchange-correlation" >
   <i type="string" name="GGA">RP</i>
   <i type="int" name="VOSKOWN">     0</i>
   <i type="logical" name="LHFCALC"> F  </i>
   <i type="string" name="PRECFOCK"></i>
   <i type="logical" name="LSYMGRAD"> F  </i>
   <i type="logical" name="LHFONE"> F  </i>
   <i type="logical" name="LRHFCALC"> F  </i>
   <i type="logical" name="LTHOMAS"> F  </i>
   <i type="logical" name="LMODELHF"> F  </i>
   <i type="logical" name="LFOCKACE"> F  </i>
   <i name="ENCUT4O">     -1.00000000</i>
   <i type="int" name="EXXOEP">     0</i>
   <i type="int" name="FOURORBIT">     0</i>
   <i name="AEXX">      0.00000000</i>
   <i name="HFALPHA">      0.00000000</i>
   <i name="MCALPHA">      0.00000000</i>
   <i name="ALDAX">      1.00000000</i>
   <i name="AGGAX">      1.00000000</i>
   <i name="ALDAC">      1.00000000</i>
   <i name="AGGAC">      1.00000000</i>
   <i type="int" name="NKREDX">     1</i>
   <i type="int" name="NKREDY">     1</i>
   <i type="int" name="NKREDZ">     1</i>
   <i type="logical" name="SHIFTRED"> F  </i>
   <i type="logical" name="ODDONLY"> F  </i>
   <i type="logical" name="EVENONLY"> F  </i>
   <i type="int" name="LMAXFOCK">     0</i>
   <i type="int" name="NMAXFOCKAE">     0</i>
   <i type="logical" name="LFOCKAEDFT"> F  </i>
   <i name="HFSCREEN">      0.00000000</i>
   <i name="HFSCREENC">      0.00000000</i>
   <i type="int" name="NBANDSGWLOW">     0</i>
  </separator>
  <separator name="vdW DFT" >
   <i type="logical" name="LUSE_VDW"> F  </i>
   <i name="Zab_VDW">     -0.84910000</i>
   <i name="PARAM1">      0.12340000</i>
   <i name="PARAM2">      1.00000000</i>
   <i name="PARAM3">      0.00000000</i>
  </separator>
  <separator name="model GW" >
   <i type="int" name="MODEL_GW">     0</i>
   <i name="MODEL_EPS0">     32.30086498</i>
   <i name="MODEL_ALPHA">      1.00000000</i>
  </separator>
  <separator name="linear response parameters" >
   <i type="logical" name="LEPSILON"> F  </i>
   <i type="logical" name="LRPA"> F  </i>
   <i type="logical" name="LNABLA"> F  </i>
   <i type="logical" name="LVEL"> F  </i>
   <i type="int" name="KINTER">     0</i>
   <i name="CSHIFT">      0.10000000</i>
   <i name="OMEGAMAX">     -1.00000000</i>
   <i name="DEG_THRESHOLD">      0.00200000</i>
   <i name="RTIME">     -0.10000000</i>
   <i name="WPLASMAI">      0.00000000</i>
   <v name="DFIELD">      0.00000000      0.00000000      0.00000000</v>
   <v name="WPLASMA">      0.00000000      0.00000000      0.00000000      0.00000000      0.00000000      0.00000000      0.00000000      0.00000000      0.00000000</v>
  </separator>
  <separator name="orbital magnetization" >
   <i type="logical" name="NUCIND"> F  </i>
   <v name="MAGPOS">      0.00000000      0.00000000      0.00000000</v>
   <i type="logical" name="LNICSALL"> T  </i>
   <i type="logical" name="ORBITALMAG"> F  </i>
   <i type="logical" name="LMAGBLOCH"> F  </i>
   <i type="logical" name="LCHIMAG"> F  </i>
   <i type="logical" name="LGAUGE"> T  </i>
   <i type="int" name="MAGATOM">     0</i>
   <v name="MAGDIPOL">      0.00000000      0.00000000      0.00000000</v>
   <v name="AVECCONST">      0.00000000      0.00000000      0.00000000</v>
  </separator>
  <separator name="response functions" >
   <i type="logical" name="LFINITE_TEMPERATURE"> F  </i>
   <i type="logical" name="LADDER"> F  </i>
   <i type="logical" name="LRPAFORCE"> F  </i>
   <i type="logical" name="LFXC"> F  </i>
   <i type="logical" name="LHARTREE"> T  </i>
   <i type="int" name="IBSE">     0</i>
   <v type="int" name="KPOINT">    -1     0     0     0</v>
   <i type="logical" name="LTCTC"> F  </i>
   <i type="logical" name="LTCTE"> F  </i>
   <i type="logical" name="LTETE"> F  </i>
   <i type="logical" name="LTRIPLET"> F  </i>
   <i type="logical" name="LFXCEPS"> F  </i>
   <i type="logical" name="LFXHEG"> F  </i>
   <i type="int" name="NATURALO">     2</i>
   <i type="logical" name="LHOLEGF"> F  </i>
   <i type="logical" name="L2ORDER"> F  </i>
   <i type="logical" name="LDMP1"> F  </i>
   <i type="logical" name="LMP2LT"> F  </i>
   <i type="logical" name="LSMP2LT"> F  </i>
   <i type="logical" name="LGWLF"> F  </i>
   <i name="ENCUTGW">     -2.00000000</i>
   <i name="ENCUTGWSOFT">     -2.00000000</i>
   <i name="ENCUTLF">     -1.00000000</i>
   <i type="logical" name="LESF_SPLINES"> F  </i>
   <i type="int" name="LMAXMP2">    -1</i>
   <i name="SCISSOR">      0.00000000</i>
   <i type="int" name="NOMEGA">     0</i>
   <i type="int" name="NOMEGAR">     0</i>
   <i type="int" name="NBANDSGW">    -1</i>
   <i type="int" name="NBANDSO">    -1</i>
   <i type="int" name="NBANDSV">    -1</i>
   <i type="int" name="NELM">    80</i>
   <i type="int" name="NELMHF">     1</i>
   <i type="int" name="DIM">     3</i>
   <i type="int" name="IESPILON">     4</i>
   <i type="int" name="ANTIRES">     0</i>
   <i name="OMEGAMAX">    -30.00000000</i>
   <i name="OMEGAMIN">    -30.00000000</i>
   <i name="OMEGATL">   -200.00000000</i>
   <i type="int" name="OMEGAGRID">     0</i>
   <i name="CSHIFT">     -0.10000000</i>
   <i type="logical" name="LSELFENERGY"> F  </i>
   <i type="logical" name="LSPECTRAL"> F  </i>
   <i type="logical" name="LSPECTRALGW"> F  </i>
   <i type="logical" name="LSINGLES"> F  </i>
   <i type="logical" name="LFERMIGW"> F  </i>
   <i type="logical" name="ODDONLYGW"> F  </i>
   <i type="logical" name="EVENONLYGW"> F  </i>
   <i type="int" name="NKREDLFX">     1</i>
   <i type="int" name="NKREDLFY">     1</i>
   <i type="int" name="NKREDLFZ">     1</i>
   <i type="int" name="MAXMEM">  2800</i>
   <i type="int" name="TELESCOPE">     0</i>
   <i type="int" name="NTAUPAR">    -1</i>
   <i type="int" name="NOMEGAPAR">    -1</i>
   <i name="DAMP_NEWTON">      0.80000001</i>
   <i name="LAMBDA">      1.00000000</i>
  </separator>
  <separator name="External order field" >
   <i name="OFIELD_KAPPA">      0.00000000</i>
   <v name="OFIELD_K">      0.00000000      0.00000000      0.00000000</v>
   <i name="OFIELD_Q6_NEAR">      0.00000000</i>
   <i name="OFIELD_Q6_FAR">      0.00000000</i>
   <i name="OFIELD_A">      0.00000000</i>
  </separator>
 </parameters>
 <atominfo>
  <atoms>      20 </atoms>
  <types>       1 </types>
  <array name="atoms" >
   <dimension dim="1">ion</dimension>
   <field type="string">element</field>
   <field type="int">atomtype</field>
   <set>
    <rc><c>Pt</c><c>   1</c></rc>
    <rc><c>Pt</c><c>   1</c></rc>
    <rc><c>Pt</c><c>   1</c></rc>
    <rc><c>Pt</c><c>   1</c></rc>
    <rc><c>Pt</c><c>   1</c></rc>
    <rc><c>Pt</c><c>   1</c></rc>
    <rc><c>Pt</c><c>   1</c></rc>
    <rc><c>Pt</c><c>   1</c></rc>
    <rc><c>Pt</c><c>   1</c></rc>
    <rc><c>Pt</c><c>   1</c></rc>
    <rc><c>Pt</c><c>   1</c></rc>
    <rc><c>Pt</c><c>   1</c></rc>
    <rc><c>Pt</c><c>   1</c></rc>
    <rc><c>Pt</c><c>   1</c></rc>
    <rc><c>Pt</c><c>   1</c></rc>
    <rc><c>Pt</c><c>   1</c></rc>
    <rc><c>Pt</c><c>   1</c></rc>
    <rc><c>Pt</c><c>   1</c></rc>
    <rc><c>Pt</c><c>   1</c></rc>
    <rc><c>Pt</c><c>   1</c></rc>
   </set>
  </array>
  <array name="atomtypes" >
   <dimension dim="1">type</dimension>
   <field type="int">atomspertype</field>
   <field type="string">element</field>
   <field>mass</field>
   <field>valence</field>
   <field type="string">pseudopotential</field>
   <set>
    <rc><c>  20</c><c>Pt</c><c>    195.08000000</c><c>     10.00000000</c><c>  PAW_PBE Pt 04Feb2005                  </c></rc>
   </set>
  </array>
 </atominfo>
 <structure name="initialpos" >
  <crystal>
   <varray name="basis" >
    <v>       5.63354200       0.00000000       0.20288700 </v>
    <v>       2.81311700       4.88089800       0.20288700 </v>
    <v>       0.00000000       0.00000000      39.15720000 </v>
   </varray>
   <i name="volume">   1076.69549949 </i>
   <varray name="rec_basis" >
    <v>       0.17750822      -0.10230728       0.00000000 </v>
    <v>       0.00000000       0.20488033       0.00000000 </v>
    <v>      -0.00091973      -0.00053147       0.02553809 </v>
   </varray>
  </crystal>
  <varray name="positions" >
   <v>       0.01468107       0.01471785       0.61840826 </v>
   <v>       0.01468426       0.51471315       0.61840819 </v>
   <v>       0.51467911       0.01471170       0.61841180 </v>
   <v>       0.51468156       0.51471193       0.61841569 </v>
   <v>       0.19068917       0.19065604       0.55819065 </v>
   <v>       0.19073104       0.69064119       0.55819185 </v>
   <v>       0.69073021       0.19067044       0.55818990 </v>
   <v>       0.69072186       0.69062767       0.55818988 </v>
   <v>       0.36820853       0.36818810       0.49984260 </v>
   <v>       0.36820532       0.86818085       0.49984284 </v>
   <v>       0.86817813       0.36819762       0.49984207 </v>
   <v>       0.86819790       0.86818449       0.49984600 </v>
   <v>       0.04411800       0.04411800       0.44117600 </v>
   <v>       0.04411800       0.54411800       0.44117600 </v>
   <v>       0.54411800       0.04411800       0.44117600 </v>
   <v>       0.54411800       0.54411800       0.44117600 </v>
   <v>       0.22058800       0.22058800       0.38235300 </v>
   <v>       0.22058800       0.72058800       0.38235300 </v>
   <v>       0.72058800       0.22058800       0.38235300 </v>
   <v>       0.72058800       0.72058800       0.38235300 </v>
  </varray>
  <varray name="selective"  type="logical" >
   <v type="logical" >  T  T  T </v>
   <v type="logical" >  T  T  T </v>
   <v type="logical" >  T  T  T </v>
   <v type="logical" >  T  T  T </v>
   <v type="logical" >  T  T  T </v>
   <v type="logical" >  T  T  T </v>
   <v type="logical" >  T  T  T </v>
   <v type="logical" >  T  T  T </v>
   <v type="logical" >  T  T  T </v>
   <v type="logical" >  T  T  T </v>
   <v type="logical" >  T  T  T </v>
   <v type="logical" >  T  T  T </v>
   <v type="logical" >  F  F  F </v>
   <v type="logical" >  F  F  F </v>
   <v type="logical" >  F  F  F </v>
   <v type="logical" >  F  F  F </v>
   <v type="logical" >  F  F  F </v>
   <v type="logical" >  F  F  F </v>
   <v type="logical" >  F  F  F </v>
   <v type="logical" >  F  F  F </v>
  </varray>
  <nose>
   <v>      -3.00000000       0.00000000       0.00010000       0.00010000 </v>
  </nose>
 </structure>
 <calculation>
  <scstep>
   <time name="dav">    2.53    2.54</time>
   <time name="total">    2.67    2.68</time>
   <energy>
    <i name="alphaZ">    353.14819109 </i>
    <i name="ewald"> 200384.30822298 </i>
    <i name="hartreedc">-215394.66326923 </i>
    <i name="XCdc">     61.00893459 </i>
    <i name="pawpsdc">  13934.11900847 </i>
    <i name="pawaedc"> -13349.16546025 </i>
    <i name="eentropy">     -0.02614169 </i>
    <i name="bandstr">    792.29697856 </i>
    <i name="atom">  14566.38418648 </i>
    <i name="e_fr_energy">   1347.41065101 </i>
    <i name="e_wo_entrp">   1347.43679269 </i>
    <i name="e_0_energy">   1347.42372185 </i>
   </energy>
  </scstep>
  <scstep>
   <time name="dav">    3.03    3.04</time>
   <time name="total">    3.03    3.04</time>
   <energy>
    <i name="e_fr_energy">      4.46323279 </i>
    <i name="e_wo_entrp">      4.48603891 </i>
    <i name="e_0_energy">      4.47463585 </i>
   </energy>
  </scstep>
  <scstep>
   <time name="dav">    2.85    2.86</time>
   <time name="total">    2.85    2.86</time>
   <energy>
    <i name="e_fr_energy">   -108.49074919 </i>
    <i name="e_wo_entrp">   -108.42867814 </i>
    <i name="e_0_energy">   -108.45971366 </i>
   </energy>
  </scstep>
  <scstep>
   <time name="dav">    3.22    3.23</time>
   <time name="total">    3.22    3.23</time>
   <energy>
    <i name="e_fr_energy">   -113.46626833 </i>
    <i name="e_wo_entrp">   -113.37464751 </i>
    <i name="e_0_energy">   -113.42045792 </i>
   </energy>
  </scstep>
  <scstep>
   <time name="dav">    2.89    2.90</time>
   <time name="total">    3.06    3.07</time>
   <energy>
    <i name="e_fr_energy">   -113.56844183 </i>
    <i name="e_wo_entrp">   -113.47549910 </i>
    <i name="e_0_energy">   -113.52197047 </i>
   </energy>
  </scstep>
  <scstep>
   <time name="dav">    2.77    2.78</time>
   <time name="total">    3.06    3.07</time>
   <energy>
    <i name="e_fr_energy">   -132.18946489 </i>
    <i name="e_wo_entrp">   -132.14188997 </i>
    <i name="e_0_energy">   -132.16567743 </i>
   </energy>
  </scstep>
  <scstep>
   <time name="dav">    2.95    2.96</time>
   <time name="total">    3.23    3.25</time>
   <energy>
    <i name="e_fr_energy">   -148.06238403 </i>
    <i name="e_wo_entrp">   -148.02008033 </i>
    <i name="e_0_energy">   -148.04123218 </i>
   </energy>
  </scstep>
  <scstep>
   <time name="dav">    3.75    3.77</time>
   <time name="total">    4.04    4.06</time>
   <energy>
    <i name="e_fr_energy">   -274.64971100 </i>
    <i name="e_wo_entrp">   -274.62260998 </i>
    <i name="e_0_energy">   -274.63616049 </i>
   </energy>
  </scstep>
  <scstep>
   <time name="dav">    2.92    2.93</time>
   <time name="total">    3.20    3.22</time>
   <energy>
    <i name="e_fr_energy">   -401.11444512 </i>
    <i name="e_wo_entrp">   -401.10157944 </i>
    <i name="e_0_energy">   -401.10801228 </i>
   </energy>
  </scstep>
  <scstep>
   <time name="dav">    3.07    3.08</time>
   <time name="total">    3.35    3.37</time>
   <energy>
    <i name="e_fr_energy">   -400.98386404 </i>
    <i name="e_wo_entrp">   -400.91020449 </i>
    <i name="e_0_energy">   -400.94703426 </i>
   </energy>
  </scstep>
  <scstep>
   <time name="dav">    2.99    3.00</time>
   <time name="total">    3.29    3.30</time>
   <energy>
    <i name="e_fr_energy">   -313.14007502 </i>
    <i name="e_wo_entrp">   -313.10180541 </i>
    <i name="e_0_energy">   -313.12094022 </i>
   </energy>
  </scstep>
  <scstep>
   <time name="dav">    2.87    2.89</time>
   <time name="total">    3.17    3.19</time>
   <energy>
    <i name="e_fr_energy">   -362.14723727 </i>
    <i name="e_wo_entrp">   -362.12200743 </i>
    <i name="e_0_energy">   -362.13462235 </i>
   </energy>
  </scstep>
  <scstep>
   <time name="dav">    3.21    3.22</time>
   <time name="total">    3.51    3.52</time>
   <energy>
    <i name="e_fr_energy">   -131.42180556 </i>
    <i name="e_wo_entrp">   -131.40416603 </i>
    <i name="e_0_energy">   -131.41298579 </i>
   </energy>
  </scstep>
  <scstep>
   <time name="dav">    3.04    3.05</time>
   <time name="total">    3.34    3.35</time>
   <energy>
    <i name="e_fr_energy">   -162.91967922 </i>
    <i name="e_wo_entrp">   -162.85530038 </i>
    <i name="e_0_energy">   -162.88748980 </i>
   </energy>
  </scstep>
  <scstep>
   <time name="dav">    3.32    3.33</time>
   <time name="total">    3.61    3.63</time>
   <energy>
    <i name="e_fr_energy">   -165.31318439 </i>
    <i name="e_wo_entrp">   -165.28682069 </i>
    <i name="e_0_energy">   -165.30000254 </i>
   </energy>
  </scstep>
  <scstep>
   <time name="dav">    3.25    3.27</time>
   <time name="total">    3.54    3.56</time>
   <energy>
    <i name="e_fr_energy">   -168.51921963 </i>
    <i name="e_wo_entrp">   -168.48298838 </i>
    <i name="e_0_energy">   -168.50110401 </i>
   </energy>
  </scstep>
  <scstep>
   <time name="dav">    3.14    3.15</time>
   <time name="total">    3.68    3.70</time>
   <energy>
    <i name="e_fr_energy">   -166.55061204 </i>
    <i name="e_wo_entrp">   -166.51477459 </i>
    <i name="e_0_energy">   -166.53269332 </i>
   </energy>
  </scstep>
  <scstep>
   <time name="dav">    2.69    2.69</time>
   <time name="total">    2.98    2.99</time>
   <energy>
    <i name="e_fr_energy">   -155.10076409 </i>
    <i name="e_wo_entrp">   -155.07038942 </i>
    <i name="e_0_energy">   -155.08557676 </i>
   </energy>
  </scstep>
  <scstep>
   <time name="dav">    2.77    2.77</time>
   <time name="total">    3.06    3.07</time>
   <energy>
    <i name="e_fr_energy">   -121.76008710 </i>
    <i name="e_wo_entrp">   -121.72632840 </i>
    <i name="e_0_energy">   -121.74320775 </i>
   </energy>
  </scstep>
  <scstep>
   <time name="dav">    2.70    2.71</time>
   <time name="total">    3.01    3.02</time>
   <energy>
    <i name="e_fr_energy">   -115.26271784 </i>
    <i name="e_wo_entrp">   -115.19783320 </i>
    <i name="e_0_energy">   -115.23027552 </i>
   </energy>
  </scstep>
  <scstep>
   <time name="dav">    2.77    2.78</time>
   <time name="total">    3.08    3.08</time>
   <energy>
    <i name="e_fr_energy">   -113.05492068 </i>
    <i name="e_wo_entrp">   -112.96676634 </i>
    <i name="e_0_energy">   -113.01084351 </i>
   </energy>
  </scstep>
  <scstep>
   <time name="dav">    2.97    2.98</time>
   <time name="total">    3.27    3.28</time>
   <energy>
    <i name="e_fr_energy">   -116.33727997 </i>
    <i name="e_wo_entrp">   -116.31317230 </i>
    <i name="e_0_energy">   -116.32522613 </i>
   </energy>
  </scstep>
  <scstep>
   <time name="dav">    2.91    2.92</time>
   <time name="total">    3.22    3.23</time>
   <energy>
    <i name="e_fr_energy">   -118.72264807 </i>
    <i name="e_wo_entrp">   -118.66847122 </i>
    <i name="e_0_energy">   -118.69555965 </i>
   </energy>
  </scstep>
  <scstep>
   <time name="dav">    2.88    2.88</time>
   <time name="total">    3.17    3.17</time>
   <energy>
    <i name="e_fr_energy">   -117.70018965 </i>
    <i name="e_wo_entrp">   -117.62301368 </i>
    <i name="e_0_energy">   -117.66160166 </i>
   </energy>
  </scstep>
  <scstep>
   <time name="dav">    2.78    2.78</time>
   <time name="total">    3.07    3.08</time>
   <energy>
    <i name="e_fr_energy">   -117.02807674 </i>
    <i name="e_wo_entrp">   -116.94158361 </i>
    <i name="e_0_energy">   -116.98483017 </i>
   </energy>
  </scstep>
  <scstep>
   <time name="dav">    2.69    2.69</time>
   <time name="total">    2.98    2.99</time>
   <energy>
    <i name="e_fr_energy">   -116.99130328 </i>
    <i name="e_wo_entrp">   -116.90060152 </i>
    <i name="e_0_energy">   -116.94595240 </i>
   </energy>
  </scstep>
  <scstep>
   <time name="dav">    2.79    2.79</time>
   <time name="total">    3.10    3.11</time>
   <energy>
    <i name="e_fr_energy">   -116.38308101 </i>
    <i name="e_wo_entrp">   -116.29034610 </i>
    <i name="e_0_energy">   -116.33671355 </i>
   </energy>
  </scstep>
  <scstep>
   <time name="dav">    2.65    2.66</time>
   <time name="total">    2.97    2.98</time>
   <energy>
    <i name="e_fr_energy">   -114.82221574 </i>
    <i name="e_wo_entrp">   -114.71323495 </i>
    <i name="e_0_energy">   -114.76772534 </i>
   </energy>
  </scstep>
  <scstep>
   <time name="dav">    2.82    2.82</time>
   <time name="total">    3.13    3.14</time>
   <energy>
    <i name="e_fr_energy">   -114.85716826 </i>
    <i name="e_wo_entrp">   -114.74604240 </i>
    <i name="e_0_energy">   -114.80160533 </i>
   </energy>
  </scstep>
  <scstep>
   <time name="dav">    2.97    2.97</time>
   <time name="total">    3.28    3.28</time>
   <energy>
    <i name="e_fr_energy">   -114.91925454 </i>
    <i name="e_wo_entrp">   -114.80721255 </i>
    <i name="e_0_energy">   -114.86323355 </i>
   </energy>
  </scstep>
  <scstep>
   <time name="dav">    2.60    2.60</time>
   <time name="total">    2.89    2.90</time>
   <energy>
    <i name="e_fr_energy">   -113.15076190 </i>
    <i name="e_wo_entrp">   -113.04517022 </i>
    <i name="e_0_energy">   -113.09796606 </i>
   </energy>
  </scstep>
  <scstep>
   <time name="dav">    2.77    2.77</time>
   <time name="total">    3.07    3.07</time>
   <energy>
    <i name="e_fr_energy">   -112.09901629 </i>
    <i name="e_wo_entrp">   -111.97867645 </i>
    <i name="e_0_energy">   -112.03884637 </i>
   </energy>
  </scstep>
  <scstep>
   <time name="dav">    2.71    2.72</time>
   <time name="total">    3.01    3.02</time>
   <energy>
    <i name="e_fr_energy">   -110.92963045 </i>
    <i name="e_wo_entrp">   -110.83239713 </i>
    <i name="e_0_energy">   -110.88101379 </i>
   </energy>
  </scstep>
  <scstep>
   <time name="dav">    2.81    2.81</time>
   <time name="total">    3.10    3.10</time>
   <energy>
    <i name="e_fr_energy">   -109.79575688 </i>
    <i name="e_wo_entrp">   -109.70509324 </i>
    <i name="e_0_energy">   -109.75042506 </i>
   </energy>
  </scstep>
  <scstep>
   <time name="dav">    2.94    2.95</time>
   <time name="total">    3.23    3.24</time>
   <energy>
    <i name="e_fr_energy">   -109.16840611 </i>
    <i name="e_wo_entrp">   -109.05661686 </i>
    <i name="e_0_energy">   -109.11251148 </i>
   </energy>
  </scstep>
  <scstep>
   <time name="dav">    2.70    2.71</time>
   <time name="total">    3.01    3.03</time>
   <energy>
    <i name="e_fr_energy">   -109.15205185 </i>
    <i name="e_wo_entrp">   -109.03838685 </i>
    <i name="e_0_energy">   -109.09521935 </i>
   </energy>
  </scstep>
  <scstep>
   <time name="dav">    2.77    2.78</time>
   <time name="total">    3.07    3.07</time>
   <energy>
    <i name="e_fr_energy">   -109.10941885 </i>
    <i name="e_wo_entrp">   -108.99064508 </i>
    <i name="e_0_energy">   -109.05003197 </i>
   </energy>
  </scstep>
  <scstep>
   <time name="dav">    2.75    2.76</time>
   <time name="total">    3.04    3.05</time>
   <energy>
    <i name="e_fr_energy">   -108.88478763 </i>
    <i name="e_wo_entrp">   -108.77296528 </i>
    <i name="e_0_energy">   -108.82887645 </i>
   </energy>
  </scstep>
  <scstep>
   <time name="dav">    2.84    2.85</time>
   <time name="total">    3.13    3.14</time>
   <energy>
    <i name="e_fr_energy">   -108.95307035 </i>
    <i name="e_wo_entrp">   -108.87306714 </i>
    <i name="e_0_energy">   -108.91306875 </i>
   </energy>
  </scstep>
  <scstep>
   <time name="dav">    2.87    2.87</time>
   <time name="total">    3.16    3.17</time>
   <energy>
    <i name="e_fr_energy">   -108.59267912 </i>
    <i name="e_wo_entrp">   -108.49378534 </i>
    <i name="e_0_energy">   -108.54323223 </i>
   </energy>
  </scstep>
  <scstep>
   <time name="dav">    2.85    2.87</time>
   <time name="total">    3.14    3.16</time>
   <energy>
    <i name="e_fr_energy">   -107.88365897 </i>
    <i name="e_wo_entrp">   -107.76048227 </i>
    <i name="e_0_energy">   -107.82207062 </i>
   </energy>
  </scstep>
  <scstep>
   <time name="dav">    2.73    2.73</time>
   <time name="total">    3.03    3.04</time>
   <energy>
    <i name="e_fr_energy">   -107.99099487 </i>
    <i name="e_wo_entrp">   -107.87809051 </i>
    <i name="e_0_energy">   -107.93454269 </i>
   </energy>
  </scstep>
  <scstep>
   <time name="dav">    2.88    2.89</time>
   <time name="total">    3.19    3.19</time>
   <energy>
    <i name="e_fr_energy">   -107.85109288 </i>
    <i name="e_wo_entrp">   -107.73400546 </i>
    <i name="e_0_energy">   -107.79254917 </i>
   </energy>
  </scstep>
  <scstep>
   <time name="dav">    2.80    2.80</time>
   <time name="total">    3.10    3.11</time>
   <energy>
    <i name="e_fr_energy">   -107.63721342 </i>
    <i name="e_wo_entrp">   -107.51549215 </i>
    <i name="e_0_energy">   -107.57635279 </i>
   </energy>
  </scstep>
  <scstep>
   <time name="dav">    2.72    2.73</time>
   <time name="total">    3.01    3.02</time>
   <energy>
    <i name="e_fr_energy">   -107.45256447 </i>
    <i name="e_wo_entrp">   -107.32979938 </i>
    <i name="e_0_energy">   -107.39118192 </i>
   </energy>
  </scstep>
  <scstep>
   <time name="dav">    2.95    2.96</time>
   <time name="total">    3.24    3.25</time>
   <energy>
    <i name="e_fr_energy">   -107.44967420 </i>
    <i name="e_wo_entrp">   -107.33123997 </i>
    <i name="e_0_energy">   -107.39045709 </i>
   </energy>
  </scstep>
  <scstep>
   <time name="dav">    2.58    2.59</time>
   <time name="total">    2.87    2.88</time>
   <energy>
    <i name="e_fr_energy">   -107.26578638 </i>
    <i name="e_wo_entrp">   -107.14220152 </i>
    <i name="e_0_energy">   -107.20399395 </i>
   </energy>
  </scstep>
  <scstep>
   <time name="dav">    2.76    2.77</time>
   <time name="total">    3.06    3.07</time>
   <energy>
    <i name="e_fr_energy">   -107.25877209 </i>
    <i name="e_wo_entrp">   -107.13317918 </i>
    <i name="e_0_energy">   -107.19597564 </i>
   </energy>
  </scstep>
  <scstep>
   <time name="dav">    2.66    2.67</time>
   <time name="total">    2.97    2.97</time>
   <energy>
    <i name="e_fr_energy">   -107.21945868 </i>
    <i name="e_wo_entrp">   -107.09576792 </i>
    <i name="e_0_energy">   -107.15761330 </i>
   </energy>
  </scstep>
  <scstep>
   <time name="dav">    2.70    2.71</time>
   <time name="total">    3.01    3.02</time>
   <energy>
    <i name="e_fr_energy">   -107.22186700 </i>
    <i name="e_wo_entrp">   -107.09800680 </i>
    <i name="e_0_energy">   -107.15993690 </i>
   </energy>
  </scstep>
  <scstep>
   <time name="dav">    2.64    2.65</time>
   <time name="total">    2.96    2.97</time>
   <energy>
    <i name="e_fr_energy">   -107.41282707 </i>
    <i name="e_wo_entrp">   -107.30327974 </i>
    <i name="e_0_energy">   -107.35805340 </i>
   </energy>
  </scstep>
  <scstep>
   <time name="dav">    2.69    2.70</time>
   <time name="total">    3.00    3.00</time>
   <energy>
    <i name="e_fr_energy">   -107.42647153 </i>
    <i name="e_wo_entrp">   -107.31305380 </i>
    <i name="e_0_energy">   -107.36976266 </i>
   </energy>
  </scstep>
  <scstep>
   <time name="dav">    2.66    2.67</time>
   <time name="total">    2.97    2.98</time>
   <energy>
    <i name="e_fr_energy">   -107.34826340 </i>
    <i name="e_wo_entrp">   -107.22850939 </i>
    <i name="e_0_energy">   -107.28838639 </i>
   </energy>
  </scstep>
  <scstep>
   <time name="dav">    2.75    2.75</time>
   <time name="total">    3.05    3.06</time>
   <energy>
    <i name="e_fr_energy">   -107.34961887 </i>
    <i name="e_wo_entrp">   -107.23042662 </i>
    <i name="e_0_energy">   -107.29002275 </i>
   </energy>
  </scstep>
  <scstep>
   <time name="dav">    3.18    3.19</time>
   <time name="total">    3.49    3.50</time>
   <energy>
    <i name="e_fr_energy">   -107.35001357 </i>
    <i name="e_wo_entrp">   -107.23082966 </i>
    <i name="e_0_energy">   -107.29042161 </i>
   </energy>
  </scstep>
  <scstep>
   <time name="dav">    2.67    2.68</time>
   <time name="total">    2.99    3.00</time>
   <energy>
    <i name="e_fr_energy">   -107.19038953 </i>
    <i name="e_wo_entrp">   -107.06442688 </i>
    <i name="e_0_energy">   -107.12740820 </i>
   </energy>
  </scstep>
  <scstep>
   <time name="dav">    2.60    2.61</time>
   <time name="total">    2.92    2.93</time>
   <energy>
    <i name="e_fr_energy">   -107.20834359 </i>
    <i name="e_wo_entrp">   -107.08409721 </i>
    <i name="e_0_energy">   -107.14622040 </i>
   </energy>
  </scstep>
  <scstep>
   <time name="dav">    2.80    2.81</time>
   <time name="total">    3.12    3.13</time>
   <energy>
    <i name="e_fr_energy">   -107.23178973 </i>
    <i name="e_wo_entrp">   -107.11021706 </i>
    <i name="e_0_energy">   -107.17100340 </i>
   </energy>
  </scstep>
  <scstep>
   <time name="dav">    2.75    2.76</time>
   <time name="total">    3.07    3.08</time>
   <energy>
    <i name="e_fr_energy">   -107.25056905 </i>
    <i name="e_wo_entrp">   -107.13052459 </i>
    <i name="e_0_energy">   -107.19054682 </i>
   </energy>
  </scstep>
  <scstep>
   <time name="dav">    2.77    2.78</time>
   <time name="total">    3.07    3.09</time>
   <energy>
    <i name="e_fr_energy">   -107.25630856 </i>
    <i name="e_wo_entrp">   -107.13644780 </i>
    <i name="e_0_energy">   -107.19637818 </i>
   </energy>
  </scstep>
  <scstep>
   <time name="dav">    2.90    2.91</time>
   <time name="total">    3.20    3.21</time>
   <energy>
    <i name="e_fr_energy">   -107.13526571 </i>
    <i name="e_wo_entrp">   -107.02162053 </i>
    <i name="e_0_energy">   -107.07844312 </i>
   </energy>
  </scstep>
  <scstep>
   <time name="dav">    2.67    2.68</time>
   <time name="total">    2.98    2.99</time>
   <energy>
    <i name="e_fr_energy">   -107.10742528 </i>
    <i name="e_wo_entrp">   -106.99207534 </i>
    <i name="e_0_energy">   -107.04975031 </i>
   </energy>
  </scstep>
  <scstep>
   <time name="dav">    2.74    2.74</time>
   <time name="total">    3.05    3.06</time>
   <energy>
    <i name="e_fr_energy">   -107.10323005 </i>
    <i name="e_wo_entrp">   -106.98580771 </i>
    <i name="e_0_energy">   -107.04451888 </i>
   </energy>
  </scstep>
  <scstep>
   <time name="dav">    2.86    2.86</time>
   <time name="total">    3.17    3.18</time>
   <energy>
    <i name="e_fr_energy">   -107.13341749 </i>
    <i name="e_wo_entrp">   -107.02047133 </i>
    <i name="e_0_energy">   -107.07694441 </i>
   </energy>
  </scstep>
  <scstep>
   <time name="dav">    2.67    2.67</time>
   <time name="total">    2.99    2.99</time>
   <energy>
    <i name="e_fr_energy">   -107.15645515 </i>
    <i name="e_wo_entrp">   -107.04404164 </i>
    <i name="e_0_energy">   -107.10024840 </i>
   </energy>
  </scstep>
  <scstep>
   <time name="dav">    2.86    2.87</time>
   <time name="total">    3.17    3.20</time>
   <energy>
    <i name="e_fr_energy">   -107.13627118 </i>
    <i name="e_wo_entrp">   -107.03916460 </i>
    <i name="e_0_energy">   -107.08771789 </i>
   </energy>
  </scstep>
  <scstep>
   <time name="dav">    2.69    2.70</time>
   <time name="total">    2.98    2.99</time>
   <energy>
    <i name="e_fr_energy">   -107.11094004 </i>
    <i name="e_wo_entrp">   -107.01499132 </i>
    <i name="e_0_energy">   -107.06296568 </i>
   </energy>
  </scstep>
  <scstep>
   <time name="dav">    2.69    2.70</time>
   <time name="total">    2.99    3.00</time>
   <energy>
    <i name="e_fr_energy">   -107.09905860 </i>
    <i name="e_wo_entrp">   -106.99976012 </i>
    <i name="e_0_energy">   -107.04940936 </i>
   </energy>
  </scstep>
  <scstep>
   <time name="dav">    2.93    2.94</time>
   <time name="total">    3.24    3.25</time>
   <energy>
    <i name="e_fr_energy">   -107.04711380 </i>
    <i name="e_wo_entrp">   -106.94603461 </i>
    <i name="e_0_energy">   -106.99657420 </i>
   </energy>
  </scstep>
  <scstep>
   <time name="dav">    2.67    2.67</time>
   <time name="total">    2.98    2.99</time>
   <energy>
    <i name="e_fr_energy">   -107.04570398 </i>
    <i name="e_wo_entrp">   -106.94025827 </i>
    <i name="e_0_energy">   -106.99298113 </i>
   </energy>
  </scstep>
  <scstep>
   <time name="dav">    2.68    2.69</time>
   <time name="total">    3.00    3.02</time>
   <energy>
    <i name="e_fr_energy">   -107.08019464 </i>
    <i name="e_wo_entrp">   -106.97182386 </i>
    <i name="e_0_energy">   -107.02600925 </i>
   </energy>
  </scstep>
  <scstep>
   <time name="dav">    2.71    2.71</time>
   <time name="total">    3.03    3.04</time>
   <energy>
    <i name="e_fr_energy">   -107.01896397 </i>
    <i name="e_wo_entrp">   -106.90791065 </i>
    <i name="e_0_energy">   -106.96343731 </i>
   </energy>
  </scstep>
  <scstep>
   <time name="dav">    2.64    2.64</time>
   <time name="total">    2.96    2.97</time>
   <energy>
    <i name="e_fr_energy">   -107.00822954 </i>
    <i name="e_wo_entrp">   -106.88356054 </i>
    <i name="e_0_energy">   -106.94589504 </i>
   </energy>
  </scstep>
  <scstep>
   <time name="dav">    2.72    2.73</time>
   <time name="total">    3.03    3.04</time>
   <energy>
    <i name="e_fr_energy">   -106.97876279 </i>
    <i name="e_wo_entrp">   -106.85705350 </i>
    <i name="e_0_energy">   -106.91790815 </i>
   </energy>
  </scstep>
  <scstep>
   <time name="dav">    2.62    2.62</time>
   <time name="total">    2.92    2.93</time>
   <energy>
    <i name="e_fr_energy">   -106.96369769 </i>
    <i name="e_wo_entrp">   -106.84083547 </i>
    <i name="e_0_energy">   -106.90226658 </i>
   </energy>
  </scstep>
  <scstep>
   <time name="dav">    2.70    2.71</time>
   <time name="total">    3.00    3.01</time>
   <energy>
    <i name="e_fr_energy">   -107.05350981 </i>
    <i name="e_wo_entrp">   -106.92541590 </i>
    <i name="e_0_energy">   -106.98946285 </i>
   </energy>
  </scstep>
  <scstep>
   <time name="dav">    2.70    2.70</time>
   <time name="total">    3.00    3.01</time>
   <energy>
    <i name="e_fr_energy">   -106.95987743 </i>
    <i name="e_wo_entrp">   -106.83205908 </i>
    <i name="e_0_energy">   -106.89596826 </i>
   </energy>
  </scstep>
  <scstep>
   <time name="dav">    2.65    2.66</time>
   <time name="total">    2.97    2.98</time>
   <energy>
    <i name="e_fr_energy">   -106.95401378 </i>
    <i name="e_wo_entrp">   -106.82688869 </i>
    <i name="e_0_energy">   -106.89045124 </i>
   </energy>
  </scstep>
  <scstep>
   <time name="dav">    2.83    2.83</time>
   <time name="total">    3.15    3.15</time>
   <energy>
    <i name="e_fr_energy">   -106.98634146 </i>
    <i name="e_wo_entrp">   -106.85862139 </i>
    <i name="e_0_energy">   -106.92248142 </i>
   </energy>
  </scstep>
  <scstep>
   <time name="dav">    2.69    2.70</time>
   <time name="total">    2.82    2.83</time>
   <energy>
    <i name="alphaZ">    353.14819109 </i>
    <i name="ewald"> 200384.30822298 </i>
    <i name="hartreedc">-215174.34008531 </i>
    <i name="XCdc">     55.17947189 </i>
    <i name="pawpsdc">  17600.88786129 </i>
    <i name="pawaedc"> -17065.79551519 </i>
    <i name="eentropy">     -0.12885858 </i>
    <i name="bandstr">   -826.61227057 </i>
    <i name="atom">  14566.38418648 </i>
    <i name="e_fr_energy">   -106.96879592 </i>
    <i name="e_wo_entrp">   -106.83993734 </i>
    <i name="e_0_energy">   -106.90436663 </i>
   </energy>
  </scstep>
  <structure>
   <crystal>
    <varray name="basis" >
     <v>       5.63354200       0.00000000       0.20288700 </v>
     <v>       2.81311700       4.88089800       0.20288700 </v>
     <v>       0.00000000       0.00000000      39.15720000 </v>
    </varray>
    <i name="volume">   1076.69549949 </i>
    <varray name="rec_basis" >
     <v>       0.17750822      -0.10230728       0.00000000 </v>
     <v>       0.00000000       0.20488033       0.00000000 </v>
     <v>      -0.00091973      -0.00053147       0.02553809 </v>
    </varray>
   </crystal>
   <varray name="positions" >
    <v>       0.01468107       0.01471785       0.61840826 </v>
    <v>       0.01468426       0.51471315       0.61840819 </v>
    <v>       0.51467911       0.01471170       0.61841180 </v>
    <v>       0.51468156       0.51471193       0.61841569 </v>
    <v>       0.19068917       0.19065604       0.55819065 </v>
    <v>       0.19073104       0.69064119       0.55819185 </v>
    <v>       0.69073021       0.19067044       0.55818990 </v>
    <v>       0.69072186       0.69062767       0.55818988 </v>
    <v>       0.36820853       0.36818810       0.49984260 </v>
    <v>       0.36820532       0.86818085       0.49984284 </v>
    <v>       0.86817813       0.36819762       0.49984207 </v>
    <v>       0.86819790       0.86818449       0.49984600 </v>
    <v>       0.04411800       0.04411800       0.44117600 </v>
    <v>       0.04411800       0.54411800       0.44117600 </v>
    <v>       0.54411800       0.04411800       0.44117600 </v>
    <v>       0.54411800       0.54411800       0.44117600 </v>
    <v>       0.22058800       0.22058800       0.38235300 </v>
    <v>       0.22058800       0.72058800       0.38235300 </v>
    <v>       0.72058800       0.22058800       0.38235300 </v>
    <v>       0.72058800       0.72058800       0.38235300 </v>
   </varray>
  </structure>
  <varray name="forces" >
   <v>      -0.10073531      -0.05851323       0.44651459 </v>
   <v>      -0.10083610      -0.05943392       0.44711169 </v>
   <v>      -0.09827251      -0.05885985       0.43297912 </v>
   <v>      -0.09858230      -0.05982636       0.43037998 </v>
   <v>       0.06681445       0.03582410      -0.04141592 </v>
   <v>       0.06376121       0.04036428      -0.04093323 </v>
   <v>       0.05919724       0.03719562      -0.03708564 </v>
   <v>       0.06044246       0.04350809      -0.03876784 </v>
   <v>       0.04236721       0.02507433      -0.26826133 </v>
   <v>       0.04580041       0.02577069      -0.26893341 </v>
   <v>       0.04611086       0.02598003      -0.26608957 </v>
   <v>       0.04472220       0.02402279      -0.26372251 </v>
   <v>      -0.02024418      -0.01276754       0.64610991 </v>
   <v>      -0.02316596      -0.01308440       0.64710263 </v>
   <v>      -0.02321237      -0.01483103       0.65026186 </v>
   <v>      -0.02031131      -0.01142956       0.64738085 </v>
   <v>       0.01417142       0.00774265      -0.78194839 </v>
   <v>       0.01334663       0.00761104      -0.78279148 </v>
   <v>       0.01382280       0.00742790      -0.77819311 </v>
   <v>       0.01480316       0.00822437      -0.77969818 </v>
  </varray>
  <energy>
   <i name="e_fr_energy">   -106.96879592 </i>
   <i name="e_wo_entrp">   -106.83993734 </i>
   <i name="e_0_energy">   -106.90436663 </i>
  </energy>
  <time name="totalsc">  251.26  252.18</time>
 </calculation>
 <calculation>
  <scstep>
   <time name="dav">    2.51    2.52</time>
   <time name="total">    2.82    2.83</time>
   <energy>
    <i name="alphaZ">    353.14819109 </i>
    <i name="ewald"> 200083.84772842 </i>
    <i name="hartreedc">-214871.89203086 </i>
    <i name="XCdc">     55.04257916 </i>
    <i name="pawpsdc">  17614.85380636 </i>
    <i name="pawaedc"> -17079.60729901 </i>
    <i name="eentropy">     -0.12544193 </i>
    <i name="bandstr">   -828.65729257 </i>
    <i name="atom">  14566.38418648 </i>
    <i name="e_fr_energy">   -107.00557287 </i>
    <i name="e_wo_entrp">   -106.88013094 </i>
    <i name="e_0_energy">   -106.94285190 </i>
   </energy>
  </scstep>
  <scstep>
   <time name="dav">    3.53    3.54</time>
   <time name="total">    3.83    3.85</time>
   <energy>
    <i name="e_fr_energy">   -145.72502606 </i>
    <i name="e_wo_entrp">   -145.67919106 </i>
    <i name="e_0_energy">   -145.70210856 </i>
   </energy>
  </scstep>
  <scstep>
   <time name="dav">    3.40    3.41</time>
   <time name="total">    3.69    3.71</time>
   <energy>
    <i name="e_fr_energy">   -107.85860247 </i>
    <i name="e_wo_entrp">   -107.78855941 </i>
    <i name="e_0_energy">   -107.82358094 </i>
   </energy>
  </scstep>
  <scstep>
   <time name="dav">    2.59    2.60</time>
   <time name="total">    2.88    2.89</time>
   <energy>
    <i name="e_fr_energy">   -107.27299037 </i>
    <i name="e_wo_entrp">   -107.14350034 </i>
    <i name="e_0_energy">   -107.20824535 </i>
   </energy>
  </scstep>
  <scstep>
   <time name="dav">    2.66    2.68</time>
   <time name="total">    2.96    2.97</time>
   <energy>
    <i name="e_fr_energy">   -107.22897393 </i>
    <i name="e_wo_entrp">   -107.10198190 </i>
    <i name="e_0_energy">   -107.16547791 </i>
   </energy>
  </scstep>
  <scstep>
   <time name="dav">    3.33    3.35</time>
   <time name="total">    3.62    3.64</time>
   <energy>
    <i name="e_fr_energy">   -107.06113821 </i>
    <i name="e_wo_entrp">   -106.93157616 </i>
    <i name="e_0_energy">   -106.99635719 </i>
   </energy>
  </scstep>
  <scstep>
   <time name="dav">    2.81    2.83</time>
   <time name="total">    3.12    3.14</time>
   <energy>
    <i name="e_fr_energy">   -107.03715856 </i>
    <i name="e_wo_entrp">   -106.91289233 </i>
    <i name="e_0_energy">   -106.97502544 </i>
   </energy>
  </scstep>
  <scstep>
   <time name="dav">    2.77    2.78</time>
   <time name="total">    3.08    3.09</time>
   <energy>
    <i name="e_fr_energy">   -106.98571432 </i>
    <i name="e_wo_entrp">   -106.85767899 </i>
    <i name="e_0_energy">   -106.92169665 </i>
   </energy>
  </scstep>
  <scstep>
   <time name="dav">    2.74    2.75</time>
   <time name="total">    3.06    3.07</time>
   <energy>
    <i name="e_fr_energy">   -106.99026832 </i>
    <i name="e_wo_entrp">   -106.86122384 </i>
    <i name="e_0_energy">   -106.92574608 </i>
   </energy>
  </scstep>
  <scstep>
   <time name="dav">    2.81    2.82</time>
   <time name="total">    3.10    3.11</time>
   <energy>
    <i name="e_fr_energy">   -106.98303083 </i>
    <i name="e_wo_entrp">   -106.85426439 </i>
    <i name="e_0_energy">   -106.91864761 </i>
   </energy>
  </scstep>
  <scstep>
   <time name="dav">    3.23    3.25</time>
   <time name="total">    3.53    3.54</time>
   <energy>
    <i name="e_fr_energy">   -107.00771137 </i>
    <i name="e_wo_entrp">   -106.87725529 </i>
    <i name="e_0_energy">   -106.94248333 </i>
   </energy>
  </scstep>
  <scstep>
   <time name="dav">    2.64    2.65</time>
   <time name="total">    2.93    2.94</time>
   <energy>
    <i name="e_fr_energy">   -107.00434596 </i>
    <i name="e_wo_entrp">   -106.87319407 </i>
    <i name="e_0_energy">   -106.93877002 </i>
   </energy>
  </scstep>
  <scstep>
   <time name="dav">    3.84    3.85</time>
   <time name="total">    4.13    4.14</time>
   <energy>
    <i name="e_fr_energy">   -106.98813253 </i>
    <i name="e_wo_entrp">   -106.85712853 </i>
    <i name="e_0_energy">   -106.92263053 </i>
   </energy>
  </scstep>
  <scstep>
   <time name="dav">    2.80    2.81</time>
   <time name="total">    3.11    3.12</time>
   <energy>
    <i name="e_fr_energy">   -106.98068774 </i>
    <i name="e_wo_entrp">   -106.85125622 </i>
    <i name="e_0_energy">   -106.91597198 </i>
   </energy>
  </scstep>
  <scstep>
   <time name="dav">    2.78    2.79</time>
   <time name="total">    3.08    3.10</time>
   <energy>
    <i name="e_fr_energy">   -106.97950911 </i>
    <i name="e_wo_entrp">   -106.85112008 </i>
    <i name="e_0_energy">   -106.91531460 </i>
   </energy>
  </scstep>
  <scstep>
   <time name="dav">    2.76    2.77</time>
   <time name="total">    3.07    3.08</time>
   <energy>
    <i name="e_fr_energy">   -106.97951937 </i>
    <i name="e_wo_entrp">   -106.85152852 </i>
    <i name="e_0_energy">   -106.91552394 </i>
   </energy>
  </scstep>
  <scstep>
   <time name="dav">    3.02    3.03</time>
   <time name="total">    3.32    3.34</time>
   <energy>
    <i name="e_fr_energy">   -106.97812691 </i>
    <i name="e_wo_entrp">   -106.85003881 </i>
    <i name="e_0_energy">   -106.91408286 </i>
   </energy>
  </scstep>
  <scstep>
   <time name="dav">    3.05    3.06</time>
   <time name="total">    3.35    3.36</time>
   <energy>
    <i name="e_fr_energy">   -106.97621576 </i>
    <i name="e_wo_entrp">   -106.84809382 </i>
    <i name="e_0_energy">   -106.91215479 </i>
   </energy>
  </scstep>
  <scstep>
   <time name="dav">    2.68    2.69</time>
   <time name="total">    2.98    3.00</time>
   <energy>
    <i name="e_fr_energy">   -106.97577329 </i>
    <i name="e_wo_entrp">   -106.84803375 </i>
    <i name="e_0_energy">   -106.91190352 </i>
   </energy>
  </scstep>
  <scstep>
   <time name="dav">    2.75    2.76</time>
   <time name="total">    3.05    3.06</time>
   <energy>
    <i name="e_fr_energy">   -106.97573354 </i>
    <i name="e_wo_entrp">   -106.84806463 </i>
    <i name="e_0_energy">   -106.91189909 </i>
   </energy>
  </scstep>
  <scstep>
   <time name="dav">    2.62    2.63</time>
   <time name="total">    2.92    2.93</time>
   <energy>
    <i name="e_fr_energy">   -106.97570641 </i>
    <i name="e_wo_entrp">   -106.84803612 </i>
    <i name="e_0_energy">   -106.91187127 </i>
   </energy>
  </scstep>
  <scstep>
   <time name="dav">    2.74    2.75</time>
   <time name="total">    3.03    3.05</time>
   <energy>
    <i name="e_fr_energy">   -106.97562042 </i>
    <i name="e_wo_entrp">   -106.84783560 </i>
    <i name="e_0_energy">   -106.91172801 </i>
   </energy>
  </scstep>
  <scstep>
   <time name="dav">    3.09    3.10</time>
   <time name="total">    3.39    3.40</time>
   <energy>
    <i name="e_fr_energy">   -106.97560034 </i>
    <i name="e_wo_entrp">   -106.84786472 </i>
    <i name="e_0_energy">   -106.91173253 </i>
   </energy>
  </scstep>
  <scstep>
   <time name="dav">    2.57    2.58</time>
   <time name="total">    2.87    2.88</time>
   <energy>
    <i name="e_fr_energy">   -106.97558777 </i>
    <i name="e_wo_entrp">   -106.84790664 </i>
    <i name="e_0_energy">   -106.91174720 </i>
   </energy>
  </scstep>
  <scstep>
   <time name="dav">    2.45    2.46</time>
   <time name="total">    2.77    2.78</time>
   <energy>
    <i name="e_fr_energy">   -106.97552602 </i>
    <i name="e_wo_entrp">   -106.84786093 </i>
    <i name="e_0_energy">   -106.91169348 </i>
   </energy>
  </scstep>
  <scstep>
   <time name="dav">    2.75    2.76</time>
   <time name="total">    3.05    3.07</time>
   <energy>
    <i name="e_fr_energy">   -106.97549606 </i>
    <i name="e_wo_entrp">   -106.84782614 </i>
    <i name="e_0_energy">   -106.91166110 </i>
   </energy>
  </scstep>
  <scstep>
   <time name="dav">    2.62    2.63</time>
   <time name="total">    2.93    2.94</time>
   <energy>
    <i name="e_fr_energy">   -106.97552368 </i>
    <i name="e_wo_entrp">   -106.84785605 </i>
    <i name="e_0_energy">   -106.91168987 </i>
   </energy>
  </scstep>
  <scstep>
   <time name="dav">    2.52    2.53</time>
   <time name="total">    2.83    2.84</time>
   <energy>
    <i name="e_fr_energy">   -106.97552330 </i>
    <i name="e_wo_entrp">   -106.84785018 </i>
    <i name="e_0_energy">   -106.91168674 </i>
   </energy>
  </scstep>
  <scstep>
   <time name="dav">    1.78    1.79</time>
   <time name="total">    2.08    2.09</time>
   <energy>
    <i name="e_fr_energy">   -106.97550690 </i>
    <i name="e_wo_entrp">   -106.84781857 </i>
    <i name="e_0_energy">   -106.91166273 </i>
   </energy>
  </scstep>
  <scstep>
   <time name="dav">    1.64    1.64</time>
   <time name="total">    1.94    1.94</time>
   <energy>
    <i name="e_fr_energy">   -106.97550181 </i>
    <i name="e_wo_entrp">   -106.84780988 </i>
    <i name="e_0_energy">   -106.91165584 </i>
   </energy>
  </scstep>
  <scstep>
   <time name="dav">    2.36    2.37</time>
   <time name="total">    2.66    2.67</time>
   <energy>
    <i name="e_fr_energy">   -106.97545627 </i>
    <i name="e_wo_entrp">   -106.84776653 </i>
    <i name="e_0_energy">   -106.91161140 </i>
   </energy>
  </scstep>
  <scstep>
   <time name="dav">    2.62    2.63</time>
   <time name="total">    2.94    2.95</time>
   <energy>
    <i name="e_fr_energy">   -106.97544402 </i>
    <i name="e_wo_entrp">   -106.84770563 </i>
    <i name="e_0_energy">   -106.91157482 </i>
   </energy>
  </scstep>
  <scstep>
   <time name="dav">    2.07    2.08</time>
   <time name="total">    2.39    2.39</time>
   <energy>
    <i name="e_fr_energy">   -106.97544809 </i>
    <i name="e_wo_entrp">   -106.84770513 </i>
    <i name="e_0_energy">   -106.91157661 </i>
   </energy>
  </scstep>
  <scstep>
   <time name="dav">    1.77    1.78</time>
   <time name="total">    2.08    2.10</time>
   <energy>
    <i name="e_fr_energy">   -106.97545032 </i>
    <i name="e_wo_entrp">   -106.84771086 </i>
    <i name="e_0_energy">   -106.91158059 </i>
   </energy>
  </scstep>
  <scstep>
   <time name="dav">    1.73    1.74</time>
   <time name="total">    2.05    2.05</time>
   <energy>
    <i name="e_fr_energy">   -106.97544832 </i>
    <i name="e_wo_entrp">   -106.84771895 </i>
    <i name="e_0_energy">   -106.91158363 </i>
   </energy>
  </scstep>
  <scstep>
   <time name="dav">    1.73    1.74</time>
   <time name="total">    2.04    2.04</time>
   <energy>
    <i name="e_fr_energy">   -106.97544722 </i>
    <i name="e_wo_entrp">   -106.84771960 </i>
    <i name="e_0_energy">   -106.91158341 </i>
   </energy>
  </scstep>
  <scstep>
   <time name="dav">    1.63    1.64</time>
   <time name="total">    1.76    1.77</time>
   <energy>
    <i name="alphaZ">    353.14819109 </i>
    <i name="ewald"> 200083.84772842 </i>
    <i name="hartreedc">-214885.75397208 </i>
    <i name="XCdc">     55.02801315 </i>
    <i name="pawpsdc">  17581.75610753 </i>
    <i name="pawaedc"> -17046.45905556 </i>
    <i name="eentropy">     -0.12772257 </i>
    <i name="bandstr">   -814.79892366 </i>
    <i name="atom">  14566.38418648 </i>
    <i name="e_fr_energy">   -106.97544718 </i>
    <i name="e_wo_entrp">   -106.84772461 </i>
    <i name="e_0_energy">   -106.91158590 </i>
   </energy>
  </scstep>
  <structure>
   <crystal>
    <varray name="basis" >
     <v>       5.63354200       0.00000000       0.20288700 </v>
     <v>       2.81311700       4.88089800       0.20288700 </v>
     <v>       0.00000000       0.00000000      39.15720000 </v>
    </varray>
    <i name="volume">   1076.69549949 </i>
    <varray name="rec_basis" >
     <v>       0.17750822      -0.10230728       0.00000000 </v>
     <v>       0.00000000       0.20488033       0.00000000 </v>
     <v>      -0.00091973      -0.00053147       0.02553809 </v>
    </varray>
   </crystal>
   <varray name="positions" >
    <v>       0.01410723       0.01413950       0.61896434 </v>
    <v>       0.01411409       0.51412571       0.61896504 </v>
    <v>       0.51412806       0.01412993       0.61895111 </v>
    <v>       0.51413263       0.51412060       0.61895184 </v>
    <v>       0.19108452       0.19101012       0.55813575 </v>
    <v>       0.19107784       0.69104015       0.55813755 </v>
    <v>       0.69105356       0.19103808       0.55814063 </v>
    <v>       0.69102472       0.69105770       0.55813832 </v>
    <v>       0.36844758       0.36843593       0.49950957 </v>
    <v>       0.36847033       0.86843557       0.49950882 </v>
    <v>       0.86844477       0.36845441       0.49951153 </v>
    <v>       0.86846231       0.86842193       0.49951849 </v>
    <v>       0.04411800       0.04411800       0.44117600 </v>
    <v>       0.04411800       0.54411800       0.44117600 </v>
    <v>       0.54411800       0.04411800       0.44117600 </v>
    <v>       0.54411800       0.54411800       0.44117600 </v>
    <v>       0.22058800       0.22058800       0.38235300 </v>
    <v>       0.22058800       0.72058800       0.38235300 </v>
    <v>       0.72058800       0.22058800       0.38235300 </v>
    <v>       0.72058800       0.72058800       0.38235300 </v>
   </varray>
  </structure>
  <varray name="forces" >
   <v>      -0.07360518      -0.04408160       0.29863500 </v>
   <v>      -0.07332019      -0.04355984       0.29841937 </v>
   <v>      -0.07563542      -0.04368601       0.29967768 </v>
   <v>      -0.07585708      -0.04270794       0.29963737 </v>
   <v>       0.03694585       0.02858657       0.04326183 </v>
   <v>       0.03490999       0.02276231       0.04203954 </v>
   <v>       0.04138080       0.02339936       0.03781420 </v>
   <v>       0.04473833       0.01985769       0.04085925 </v>
   <v>      -0.03721996      -0.02200419      -0.07725127 </v>
   <v>      -0.04154097      -0.02169160      -0.07649440 </v>
   <v>      -0.03824627      -0.02435729      -0.07738964 </v>
   <v>      -0.03472753      -0.01757858      -0.08213363 </v>
   <v>       0.01786239       0.01000733       0.60377376 </v>
   <v>       0.01829543       0.01051506       0.60330300 </v>
   <v>       0.01894200       0.00992462       0.60308185 </v>
   <v>       0.01839877       0.00996929       0.60255632 </v>
   <v>       0.05469384       0.03111873      -0.86465366 </v>
   <v>       0.05469325       0.03116297      -0.86471026 </v>
   <v>       0.05464347       0.03116237      -0.86519915 </v>
   <v>       0.05464848       0.03120077      -0.86522718 </v>
  </varray>
  <energy>
   <i name="e_fr_energy">   -106.97544718 </i>
   <i name="e_wo_entrp">   -106.84772461 </i>
   <i name="e_0_energy">   -106.91158590 </i>
  </energy>
  <time name="totalsc">  109.85  110.50</time>
 </calculation>
 <calculation>
  <scstep>
   <time name="dav">    2.48    2.50</time>
   <time name="total">    2.79    2.80</time>
   <energy>
    <i name="alphaZ">    353.14819109 </i>
    <i name="ewald"> 199697.59244665 </i>
    <i name="hartreedc">-214500.52853619 </i>
    <i name="XCdc">     54.83902851 </i>
    <i name="pawpsdc">  17581.76040745 </i>
    <i name="pawaedc"> -17046.46334373 </i>
    <i name="eentropy">     -0.12275432 </i>
    <i name="bandstr">   -813.58502283 </i>
    <i name="atom">  14566.38418648 </i>
    <i name="e_fr_energy">   -106.97539689 </i>
    <i name="e_wo_entrp">   -106.85264257 </i>
    <i name="e_0_energy">   -106.91401973 </i>
   </energy>
  </scstep>
  <scstep>
   <time name="dav">    2.84    2.85</time>
   <time name="total">    3.13    3.15</time>
   <energy>
    <i name="e_fr_energy">   -108.01470593 </i>
    <i name="e_wo_entrp">   -107.91395924 </i>
    <i name="e_0_energy">   -107.96433258 </i>
   </energy>
  </scstep>
  <scstep>
   <time name="dav">    2.67    2.69</time>
   <time name="total">    2.97    2.99</time>
   <energy>
    <i name="e_fr_energy">   -107.48305505 </i>
    <i name="e_wo_entrp">   -107.35319939 </i>
    <i name="e_0_energy">   -107.41812722 </i>
   </energy>
  </scstep>
  <scstep>
   <time name="dav">    2.77    2.78</time>
   <time name="total">    3.07    3.08</time>
   <energy>
    <i name="e_fr_energy">   -107.33380878 </i>
    <i name="e_wo_entrp">   -107.19929679 </i>
    <i name="e_0_energy">   -107.26655279 </i>
   </energy>
  </scstep>
  <scstep>
   <time name="dav">    3.27    3.28</time>
   <time name="total">    3.57    3.58</time>
   <energy>
    <i name="e_fr_energy">   -107.18770338 </i>
    <i name="e_wo_entrp">   -107.06093105 </i>
    <i name="e_0_energy">   -107.12431721 </i>
   </energy>
  </scstep>
  <scstep>
   <time name="dav">    3.04    3.05</time>
   <time name="total">    3.34    3.35</time>
   <energy>
    <i name="e_fr_energy">   -107.14571416 </i>
    <i name="e_wo_entrp">   -107.02240043 </i>
    <i name="e_0_energy">   -107.08405729 </i>
   </energy>
  </scstep>
  <scstep>
   <time name="dav">    2.64    2.65</time>
   <time name="total">    2.94    2.95</time>
   <energy>
    <i name="e_fr_energy">   -107.18792401 </i>
    <i name="e_wo_entrp">   -107.05931181 </i>
    <i name="e_0_energy">   -107.12361791 </i>
   </energy>
  </scstep>
  <scstep>
   <time name="dav">    2.71    2.73</time>
   <time name="total">    3.01    3.02</time>
   <energy>
    <i name="e_fr_energy">   -107.21572034 </i>
    <i name="e_wo_entrp">   -107.08722144 </i>
    <i name="e_0_energy">   -107.15147089 </i>
   </energy>
  </scstep>
  <scstep>
   <time name="dav">    2.73    2.74</time>
   <time name="total">    3.01    3.03</time>
   <energy>
    <i name="e_fr_energy">   -107.17564327 </i>
    <i name="e_wo_entrp">   -107.04620724 </i>
    <i name="e_0_energy">   -107.11092525 </i>
   </energy>
  </scstep>
  <scstep>
   <time name="dav">    3.10    3.12</time>
   <time name="total">    3.40    3.41</time>
   <energy>
    <i name="e_fr_energy">   -107.03937776 </i>
    <i name="e_wo_entrp">   -106.91114181 </i>
    <i name="e_0_energy">   -106.97525979 </i>
   </energy>
  </scstep>
  <scstep>
   <time name="dav">    2.72    2.73</time>
   <time name="total">    3.02    3.03</time>
   <energy>
    <i name="e_fr_energy">   -107.03666916 </i>
    <i name="e_wo_entrp">   -106.90779702 </i>
    <i name="e_0_energy">   -106.97223309 </i>
   </energy>
  </scstep>
  <scstep>
   <time name="dav">    2.66    2.68</time>
   <time name="total">    2.95    2.98</time>
   <energy>
    <i name="e_fr_energy">   -107.03467449 </i>
    <i name="e_wo_entrp">   -106.90519846 </i>
    <i name="e_0_energy">   -106.96993648 </i>
   </energy>
  </scstep>
  <scstep>
   <time name="dav">    2.85    2.86</time>
   <time name="total">    3.20    3.21</time>
   <energy>
    <i name="e_fr_energy">   -107.02093115 </i>
    <i name="e_wo_entrp">   -106.89207903 </i>
    <i name="e_0_energy">   -106.95650509 </i>
   </energy>
  </scstep>
  <scstep>
   <time name="dav">    2.75    2.76</time>
   <time name="total">    3.05    3.06</time>
   <energy>
    <i name="e_fr_energy">   -107.01951710 </i>
    <i name="e_wo_entrp">   -106.89166926 </i>
    <i name="e_0_energy">   -106.95559318 </i>
   </energy>
  </scstep>
  <scstep>
   <time name="dav">    2.69    2.70</time>
   <time name="total">    2.99    3.00</time>
   <energy>
    <i name="e_fr_energy">   -107.01910660 </i>
    <i name="e_wo_entrp">   -106.89166174 </i>
    <i name="e_0_energy">   -106.95538417 </i>
   </energy>
  </scstep>
  <scstep>
   <time name="dav">    2.92    2.93</time>
   <time name="total">    3.21    3.23</time>
   <energy>
    <i name="e_fr_energy">   -107.01042095 </i>
    <i name="e_wo_entrp">   -106.88324352 </i>
    <i name="e_0_energy">   -106.94683223 </i>
   </energy>
  </scstep>
  <scstep>
   <time name="dav">    2.82    2.83</time>
   <time name="total">    3.12    3.13</time>
   <energy>
    <i name="e_fr_energy">   -107.00626367 </i>
    <i name="e_wo_entrp">   -106.87908509 </i>
    <i name="e_0_energy">   -106.94267438 </i>
   </energy>
  </scstep>
  <scstep>
   <time name="dav">    2.60    2.61</time>
   <time name="total">    2.89    2.91</time>
   <energy>
    <i name="e_fr_energy">   -107.00566538 </i>
    <i name="e_wo_entrp">   -106.87840906 </i>
    <i name="e_0_energy">   -106.94203722 </i>
   </energy>
  </scstep>
  <scstep>
   <time name="dav">    2.72    2.74</time>
   <time name="total">    3.02    3.03</time>
   <energy>
    <i name="e_fr_energy">   -107.00620843 </i>
    <i name="e_wo_entrp">   -106.87880752 </i>
    <i name="e_0_energy">   -106.94250797 </i>
   </energy>
  </scstep>
  <scstep>
   <time name="dav">    2.57    2.58</time>
   <time name="total">    2.86    2.88</time>
   <energy>
    <i name="e_fr_energy">   -107.00588631 </i>
    <i name="e_wo_entrp">   -106.87835349 </i>
    <i name="e_0_energy">   -106.94211990 </i>
   </energy>
  </scstep>
  <scstep>
   <time name="dav">    2.68    2.69</time>
   <time name="total">    2.98    2.98</time>
   <energy>
    <i name="e_fr_energy">   -107.00437531 </i>
    <i name="e_wo_entrp">   -106.87680887 </i>
    <i name="e_0_energy">   -106.94059209 </i>
   </energy>
  </scstep>
  <scstep>
   <time name="dav">    2.73    2.74</time>
   <time name="total">    3.03    3.04</time>
   <energy>
    <i name="e_fr_energy">   -107.00363907 </i>
    <i name="e_wo_entrp">   -106.87609152 </i>
    <i name="e_0_energy">   -106.93986529 </i>
   </energy>
  </scstep>
  <scstep>
   <time name="dav">    2.69    2.70</time>
   <time name="total">    3.01    3.01</time>
   <energy>
    <i name="e_fr_energy">   -107.00236247 </i>
    <i name="e_wo_entrp">   -106.87483496 </i>
    <i name="e_0_energy">   -106.93859871 </i>
   </energy>
  </scstep>
  <scstep>
   <time name="dav">    5.06    5.06</time>
   <time name="total">    5.37    5.37</time>
   <energy>
    <i name="e_fr_energy">   -107.00139467 </i>
    <i name="e_wo_entrp">   -106.87386906 </i>
    <i name="e_0_energy">   -106.93763186 </i>
   </energy>
  </scstep>
  <scstep>
   <time name="dav">    2.56    2.56</time>
   <time name="total">    2.86    2.87</time>
   <energy>
    <i name="e_fr_energy">   -107.00134774 </i>
    <i name="e_wo_entrp">   -106.87385365 </i>
    <i name="e_0_energy">   -106.93760070 </i>
   </energy>
  </scstep>
  <scstep>
   <time name="dav">    2.41    2.41</time>
   <time name="total">    2.71    2.71</time>
   <energy>
    <i name="e_fr_energy">   -107.00110013 </i>
    <i name="e_wo_entrp">   -106.87366715 </i>
    <i name="e_0_energy">   -106.93738364 </i>
   </energy>
  </scstep>
  <scstep>
   <time name="dav">    2.80    2.81</time>
   <time name="total">    3.10    3.11</time>
   <energy>
    <i name="e_fr_energy">   -107.00011817 </i>
    <i name="e_wo_entrp">   -106.87281895 </i>
    <i name="e_0_energy">   -106.93646856 </i>
   </energy>
  </scstep>
  <scstep>
   <time name="dav">    2.78    2.78</time>
   <time name="total">    3.08    3.08</time>
   <energy>
    <i name="e_fr_energy">   -106.99935667 </i>
    <i name="e_wo_entrp">   -106.87216759 </i>
    <i name="e_0_energy">   -106.93576213 </i>
   </energy>
  </scstep>
  <scstep>
   <time name="dav">    2.60    2.61</time>
   <time name="total">    2.90    2.91</time>
   <energy>
    <i name="e_fr_energy">   -106.99926017 </i>
    <i name="e_wo_entrp">   -106.87208684 </i>
    <i name="e_0_energy">   -106.93567351 </i>
   </energy>
  </scstep>
  <scstep>
   <time name="dav">    2.71    2.72</time>
   <time name="total">    3.02    3.03</time>
   <energy>
    <i name="e_fr_energy">   -106.99884473 </i>
    <i name="e_wo_entrp">   -106.87173467 </i>
    <i name="e_0_energy">   -106.93528970 </i>
   </energy>
  </scstep>
  <scstep>
   <time name="dav">    2.70    2.71</time>
   <time name="total">    3.01    3.01</time>
   <energy>
    <i name="e_fr_energy">   -106.99714163 </i>
    <i name="e_wo_entrp">   -106.87022259 </i>
    <i name="e_0_energy">   -106.93368211 </i>
   </energy>
  </scstep>
  <scstep>
   <time name="dav">    2.75    2.76</time>
   <time name="total">    3.12    3.13</time>
   <energy>
    <i name="e_fr_energy">   -106.99671058 </i>
    <i name="e_wo_entrp">   -106.86999056 </i>
    <i name="e_0_energy">   -106.93335057 </i>
   </energy>
  </scstep>
  <scstep>
   <time name="dav">    2.91    2.92</time>
   <time name="total">    3.22    3.22</time>
   <energy>
    <i name="e_fr_energy">   -106.99663539 </i>
    <i name="e_wo_entrp">   -106.86997147 </i>
    <i name="e_0_energy">   -106.93330343 </i>
   </energy>
  </scstep>
  <scstep>
   <time name="dav">    2.60    2.61</time>
   <time name="total">    2.90    2.91</time>
   <energy>
    <i name="e_fr_energy">   -106.99661411 </i>
    <i name="e_wo_entrp">   -106.86995379 </i>
    <i name="e_0_energy">   -106.93328395 </i>
   </energy>
  </scstep>
  <scstep>
   <time name="dav">    2.74    2.74</time>
   <time name="total">    3.04    3.05</time>
   <energy>
    <i name="e_fr_energy">   -106.99655870 </i>
    <i name="e_wo_entrp">   -106.86995479 </i>
    <i name="e_0_energy">   -106.93325674 </i>
   </energy>
  </scstep>
  <scstep>
   <time name="dav">    2.74    2.75</time>
   <time name="total">    3.04    3.06</time>
   <energy>
    <i name="e_fr_energy">   -106.99654681 </i>
    <i name="e_wo_entrp">   -106.86991708 </i>
    <i name="e_0_energy">   -106.93323194 </i>
   </energy>
  </scstep>
  <scstep>
   <time name="dav">    1.81    1.82</time>
   <time name="total">    2.12    2.13</time>
   <energy>
    <i name="e_fr_energy">   -106.99654379 </i>
    <i name="e_wo_entrp">   -106.86988782 </i>
    <i name="e_0_energy">   -106.93321580 </i>
   </energy>
  </scstep>
  <scstep>
   <time name="dav">    1.69    1.69</time>
   <time name="total">    2.01    2.01</time>
   <energy>
    <i name="e_fr_energy">   -106.99654558 </i>
    <i name="e_wo_entrp">   -106.86988690 </i>
    <i name="e_0_energy">   -106.93321624 </i>
   </energy>
  </scstep>
  <scstep>
   <time name="dav">    1.85    1.85</time>
   <time name="total">    1.98    1.98</time>
   <energy>
    <i name="alphaZ">    353.14819109 </i>
    <i name="ewald"> 199697.59244665 </i>
    <i name="hartreedc">-214501.27743590 </i>
    <i name="XCdc">     54.84902211 </i>
    <i name="pawpsdc">  17555.29377354 </i>
    <i name="pawaedc"> -17019.79136305 </i>
    <i name="eentropy">     -0.12668921 </i>
    <i name="bandstr">   -813.06867688 </i>
    <i name="atom">  14566.38418648 </i>
    <i name="e_fr_energy">   -106.99654517 </i>
    <i name="e_wo_entrp">   -106.86985596 </i>
    <i name="e_0_energy">   -106.93320057 </i>
   </energy>
  </scstep>
  <structure>
   <crystal>
    <varray name="basis" >
     <v>       5.63354200       0.00000000       0.20288700 </v>
     <v>       2.81311700       4.88089800       0.20288700 </v>
     <v>       0.00000000       0.00000000      39.15720000 </v>
    </varray>
    <i name="volume">   1076.69549949 </i>
    <varray name="rec_basis" >
     <v>       0.17750822      -0.10230728       0.00000000 </v>
     <v>       0.00000000       0.20488033       0.00000000 </v>
     <v>      -0.00091973      -0.00053147       0.02553809 </v>
    </varray>
   </crystal>
   <varray name="positions" >
    <v>       0.01336738       0.01339385       0.61968130 </v>
    <v>       0.01337899       0.51336833       0.61968298 </v>
    <v>       0.51341760       0.01337986       0.61964644 </v>
    <v>       0.51342490       0.51335822       0.61964308 </v>
    <v>       0.19159424       0.19146664       0.55806495 </v>
    <v>       0.19152495       0.69155452       0.55806755 </v>
    <v>       0.69147045       0.19151208       0.55807710 </v>
    <v>       0.69141519       0.69161213       0.55807185 </v>
    <v>       0.36875579       0.36875546       0.49908020 </v>
    <v>       0.36881202       0.86876397       0.49907816 </v>
    <v>       0.86878855       0.36878548       0.49908537 </v>
    <v>       0.86880321       0.86872805       0.49909623 </v>
    <v>       0.04411800       0.04411800       0.44117600 </v>
    <v>       0.04411800       0.54411800       0.44117600 </v>
    <v>       0.54411800       0.04411800       0.44117600 </v>
    <v>       0.54411800       0.54411800       0.44117600 </v>
    <v>       0.22058800       0.22058800       0.38235300 </v>
    <v>       0.22058800       0.72058800       0.38235300 </v>
    <v>       0.72058800       0.22058800       0.38235300 </v>
    <v>       0.72058800       0.72058800       0.38235300 </v>
   </varray>
  </structure>
  <varray name="forces" >
   <v>      -0.01130407      -0.01088549       0.06989894 </v>
   <v>      -0.01202833      -0.00832622       0.06785225 </v>
   <v>      -0.01974323      -0.00913699       0.08165463 </v>
   <v>      -0.01975628      -0.00667405       0.08153749 </v>
   <v>      -0.02858568      -0.00181066       0.18461387 </v>
   <v>      -0.02497051      -0.01503684       0.18236055 </v>
   <v>      -0.00616623      -0.00593642       0.16892259 </v>
   <v>      -0.00827900      -0.02245441       0.17712328 </v>
   <v>      -0.10131766      -0.06086780       0.08189894 </v>
   <v>      -0.10663958      -0.05747767       0.07783349 </v>
   <v>      -0.10646701      -0.06223863       0.07913281 </v>
   <v>      -0.10885803      -0.05460468       0.07774686 </v>
   <v>       0.05336076       0.03063705       0.50998057 </v>
   <v>       0.05422097       0.03155726       0.50882603 </v>
   <v>       0.05565022       0.03044471       0.50841724 </v>
   <v>       0.05457334       0.03033384       0.50795271 </v>
   <v>       0.08413854       0.04802118      -0.84062892 </v>
   <v>       0.08416468       0.04808749      -0.84075966 </v>
   <v>       0.08401230       0.04816565      -0.84219362 </v>
   <v>       0.08399479       0.04820269      -0.84217005 </v>
  </varray>
  <energy>
   <i name="e_fr_energy">   -106.99654517 </i>
   <i name="e_wo_entrp">   -106.86985596 </i>
   <i name="e_0_energy">   -106.93320057 </i>
  </energy>
  <time name="totalsc">  119.45  119.87</time>
 </calculation>
 <calculation>
  <scstep>
   <time name="dav">    2.51    2.52</time>
   <time name="total">    2.81    2.82</time>
   <energy>
    <i name="alphaZ">    353.14819109 </i>
    <i name="ewald"> 199469.69027538 </i>
    <i name="hartreedc">-214273.85343794 </i>
    <i name="XCdc">     54.76548123 </i>
    <i name="pawpsdc">  17555.33366119 </i>
    <i name="pawaedc"> -17019.83100700 </i>
    <i name="eentropy">     -0.12488760 </i>
    <i name="bandstr">   -812.51723787 </i>
    <i name="atom">  14566.38418648 </i>
    <i name="e_fr_energy">   -107.00477505 </i>
    <i name="e_wo_entrp">   -106.87988745 </i>
    <i name="e_0_energy">   -106.94233125 </i>
   </energy>
  </scstep>
  <scstep>
   <time name="dav">    2.59    2.60</time>
   <time name="total">    2.89    2.90</time>
   <energy>
    <i name="e_fr_energy">   -107.01577250 </i>
    <i name="e_wo_entrp">   -106.88569328 </i>
    <i name="e_0_energy">   -106.95073289 </i>
   </energy>
  </scstep>
  <scstep>
   <time name="dav">    2.91    2.92</time>
   <time name="total">    3.21    3.22</time>
   <energy>
    <i name="e_fr_energy">   -107.06412469 </i>
[...]
        <r>  0.0090  0.0056  0.0009  0.0013  0.0182  0.0003  0.0013  0.0004  0.0080 </r>
        <r>  0.0091  0.0056  0.0009  0.0013  0.0182  0.0003  0.0013  0.0004  0.0080 </r>
        <r>  0.0073  0.0060  0.0007  0.0026  0.0172  0.0008  0.0010  0.0000  0.0039 </r>
        <r>  0.0094  0.0077  0.0002  0.0024  0.0251  0.0014  0.0042  0.0002  0.0078 </r>
        <r>  0.0117  0.0060  0.0003  0.0021  0.0303  0.0008  0.0053  0.0005  0.0106 </r>
        <r>  0.0117  0.0060  0.0003  0.0021  0.0303  0.0008  0.0053  0.0005  0.0106 </r>
        <r>  0.0094  0.0077  0.0002  0.0024  0.0251  0.0014  0.0042  0.0002  0.0078 </r>
       </set>
       <set comment="band 112">
        <r>  0.0098  0.0052  0.0005  0.0015  0.0292  0.0015  0.0070  0.0001  0.0098 </r>
        <r>  0.0079  0.0061  0.0004  0.0023  0.0239  0.0011  0.0057  0.0008  0.0078 </r>
        <r>  0.0079  0.0061  0.0004  0.0023  0.0240  0.0011  0.0057  0.0008  0.0078 </r>
        <r>  0.0098  0.0052  0.0005  0.0015  0.0292  0.0014  0.0070  0.0001  0.0098 </r>
        <r>  0.0119  0.0063  0.0005  0.0025  0.0275  0.0001  0.0021  0.0000  0.0074 </r>
        <r>  0.0094  0.0086  0.0004  0.0025  0.0194  0.0000  0.0016  0.0001  0.0083 </r>
        <r>  0.0095  0.0086  0.0004  0.0025  0.0193  0.0000  0.0016  0.0001  0.0083 </r>
        <r>  0.0119  0.0063  0.0005  0.0025  0.0275  0.0001  0.0020  0.0000  0.0073 </r>
        <r>  0.0002  0.0000  0.0029  0.0002  0.0007  0.0026  0.0001  0.0007  0.0000 </r>
        <r>  0.0002  0.0002  0.0024  0.0000  0.0001  0.0030  0.0000  0.0012  0.0005 </r>
        <r>  0.0002  0.0002  0.0024  0.0000  0.0001  0.0030  0.0000  0.0012  0.0005 </r>
        <r>  0.0002  0.0000  0.0029  0.0002  0.0007  0.0026  0.0001  0.0007  0.0000 </r>
        <r>  0.0090  0.0056  0.0009  0.0013  0.0182  0.0003  0.0013  0.0004  0.0080 </r>
        <r>  0.0073  0.0060  0.0007  0.0026  0.0172  0.0008  0.0010  0.0000  0.0039 </r>
        <r>  0.0073  0.0060  0.0007  0.0026  0.0172  0.0008  0.0010  0.0000  0.0039 </r>
        <r>  0.0090  0.0056  0.0009  0.0013  0.0182  0.0003  0.0013  0.0004  0.0080 </r>
        <r>  0.0116  0.0060  0.0003  0.0021  0.0302  0.0008  0.0053  0.0005  0.0106 </r>
        <r>  0.0094  0.0077  0.0002  0.0024  0.0251  0.0014  0.0042  0.0002  0.0078 </r>
        <r>  0.0094  0.0077  0.0002  0.0024  0.0251  0.0014  0.0042  0.0002  0.0078 </r>
        <r>  0.0117  0.0060  0.0003  0.0021  0.0302  0.0008  0.0053  0.0005  0.0106 </r>
       </set>
       <set comment="band 113">
        <r>  0.0084  0.0000  0.0219  0.0000  0.0001  0.0003  0.0047  0.0009  0.0000 </r>
        <r>  0.0004  0.0002  0.0000  0.0005  0.0011  0.0093  0.0001  0.0280  0.0004 </r>
        <r>  0.0004  0.0002  0.0000  0.0005  0.0011  0.0093  0.0001  0.0280  0.0004 </r>
        <r>  0.0085  0.0000  0.0220  0.0000  0.0000  0.0003  0.0047  0.0009  0.0000 </r>
        <r>  0.0027  0.0008  0.0018  0.0023  0.0007  0.0030  0.0049  0.0088  0.0002 </r>
        <r>  0.0238  0.0002  0.0078  0.0005  0.0006  0.0018  0.0151  0.0053  0.0002 </r>
        <r>  0.0238  0.0002  0.0078  0.0005  0.0006  0.0018  0.0151  0.0053  0.0002 </r>
        <r>  0.0027  0.0007  0.0018  0.0023  0.0007  0.0030  0.0049  0.0088  0.0002 </r>
        <r>  0.0126  0.0009  0.0001  0.0028  0.0001  0.0003  0.0096  0.0009  0.0000 </r>
        <r>  0.0252  0.0005  0.0000  0.0015  0.0002  0.0003  0.0198  0.0009  0.0001 </r>
        <r>  0.0253  0.0005  0.0000  0.0015  0.0002  0.0003  0.0198  0.0009  0.0001 </r>
        <r>  0.0126  0.0009  0.0001  0.0028  0.0001  0.0003  0.0096  0.0009  0.0000 </r>
        <r>  0.0274  0.0000  0.0066  0.0000  0.0002  0.0005  0.0216  0.0014  0.0001 </r>
        <r>  0.0002  0.0010  0.0000  0.0031  0.0010  0.0038  0.0002  0.0114  0.0003 </r>
        <r>  0.0002  0.0010  0.0000  0.0031  0.0010  0.0038  0.0002  0.0114  0.0003 </r>
        <r>  0.0274  0.0000  0.0065  0.0000  0.0002  0.0005  0.0217  0.0014  0.0001 </r>
        <r>  0.0034  0.0001  0.0044  0.0002  0.0013  0.0066  0.0003  0.0199  0.0004 </r>
        <r>  0.0055  0.0000  0.0179  0.0002  0.0001  0.0034  0.0034  0.0103  0.0000 </r>
        <r>  0.0055  0.0001  0.0178  0.0002  0.0000  0.0034  0.0034  0.0103  0.0000 </r>
        <r>  0.0034  0.0001  0.0044  0.0003  0.0013  0.0066  0.0003  0.0199  0.0004 </r>
       </set>
       <set comment="band 114">
        <r>  0.0004  0.0001  0.0000  0.0005  0.0011  0.0093  0.0001  0.0280  0.0004 </r>
        <r>  0.0084  0.0000  0.0219  0.0000  0.0001  0.0003  0.0047  0.0009  0.0000 </r>
        <r>  0.0085  0.0000  0.0220  0.0000  0.0000  0.0003  0.0047  0.0009  0.0000 </r>
        <r>  0.0004  0.0002  0.0000  0.0005  0.0011  0.0093  0.0001  0.0280  0.0004 </r>
        <r>  0.0238  0.0002  0.0078  0.0005  0.0006  0.0018  0.0151  0.0053  0.0002 </r>
        <r>  0.0027  0.0008  0.0018  0.0023  0.0007  0.0030  0.0049  0.0088  0.0002 </r>
        <r>  0.0027  0.0008  0.0018  0.0023  0.0007  0.0030  0.0049  0.0088  0.0002 </r>
        <r>  0.0238  0.0002  0.0078  0.0005  0.0006  0.0018  0.0151  0.0053  0.0002 </r>
        <r>  0.0252  0.0005  0.0000  0.0015  0.0002  0.0003  0.0198  0.0009  0.0001 </r>
        <r>  0.0126  0.0009  0.0001  0.0028  0.0001  0.0003  0.0096  0.0009  0.0000 </r>
        <r>  0.0127  0.0009  0.0001  0.0028  0.0001  0.0003  0.0096  0.0009  0.0000 </r>
        <r>  0.0252  0.0005  0.0000  0.0015  0.0002  0.0003  0.0198  0.0009  0.0001 </r>
        <r>  0.0002  0.0010  0.0000  0.0031  0.0010  0.0038  0.0002  0.0114  0.0003 </r>
        <r>  0.0275  0.0000  0.0066  0.0000  0.0002  0.0005  0.0217  0.0014  0.0001 </r>
        <r>  0.0274  0.0000  0.0065  0.0000  0.0002  0.0005  0.0217  0.0014  0.0001 </r>
        <r>  0.0002  0.0010  0.0000  0.0031  0.0010  0.0038  0.0002  0.0114  0.0003 </r>
        <r>  0.0055  0.0000  0.0179  0.0002  0.0001  0.0034  0.0034  0.0103  0.0000 </r>
        <r>  0.0033  0.0001  0.0044  0.0002  0.0014  0.0066  0.0003  0.0199  0.0004 </r>
        <r>  0.0034  0.0001  0.0044  0.0003  0.0013  0.0066  0.0003  0.0199  0.0004 </r>
        <r>  0.0055  0.0001  0.0178  0.0002  0.0001  0.0034  0.0034  0.0103  0.0000 </r>
       </set>
       <set comment="band 115">
        <r>  0.0194  0.0116  0.0002  0.0046  0.0342  0.0000  0.0007  0.0003  0.0085 </r>
        <r>  0.0181  0.0136  0.0002  0.0038  0.0276  0.0002  0.0007  0.0001  0.0123 </r>
        <r>  0.0181  0.0136  0.0002  0.0038  0.0276  0.0002  0.0007  0.0001  0.0123 </r>
        <r>  0.0194  0.0116  0.0002  0.0046  0.0341  0.0000  0.0007  0.0003  0.0085 </r>
        <r>  0.0001  0.0000  0.0049  0.0000  0.0001  0.0068  0.0000  0.0020  0.0000 </r>
        <r>  0.0001  0.0000  0.0045  0.0000  0.0000  0.0070  0.0000  0.0026  0.0001 </r>
        <r>  0.0001  0.0000  0.0045  0.0000  0.0000  0.0070  0.0000  0.0026  0.0001 </r>
        <r>  0.0001  0.0000  0.0049  0.0000  0.0001  0.0068  0.0000  0.0020  0.0000 </r>
        <r>  0.0092  0.0093  0.0000  0.0031  0.0156  0.0002  0.0003  0.0010  0.0050 </r>
        <r>  0.0086  0.0100  0.0000  0.0033  0.0143  0.0003  0.0003  0.0007  0.0049 </r>
        <r>  0.0086  0.0099  0.0000  0.0033  0.0143  0.0003  0.0003  0.0007  0.0049 </r>
        <r>  0.0091  0.0092  0.0000  0.0031  0.0156  0.0002  0.0003  0.0010  0.0050 </r>
        <r>  0.0000  0.0000  0.0048  0.0000  0.0000  0.0068  0.0000  0.0022  0.0000 </r>
        <r>  0.0000  0.0000  0.0044  0.0000  0.0000  0.0072  0.0000  0.0025  0.0000 </r>
        <r>  0.0000  0.0000  0.0045  0.0000  0.0000  0.0072  0.0000  0.0026  0.0000 </r>
        <r>  0.0000  0.0000  0.0048  0.0000  0.0000  0.0069  0.0000  0.0021  0.0000 </r>
        <r>  0.0167  0.0115  0.0004  0.0029  0.0235  0.0001  0.0003  0.0002  0.0110 </r>
        <r>  0.0155  0.0109  0.0004  0.0046  0.0261  0.0001  0.0003  0.0002  0.0058 </r>
        <r>  0.0155  0.0109  0.0004  0.0046  0.0261  0.0001  0.0003  0.0002  0.0058 </r>
        <r>  0.0168  0.0115  0.0004  0.0029  0.0235  0.0001  0.0003  0.0003  0.0110 </r>
       </set>
       <set comment="band 116">
        <r>  0.0181  0.0137  0.0002  0.0038  0.0275  0.0002  0.0007  0.0001  0.0122 </r>
        <r>  0.0194  0.0116  0.0002  0.0046  0.0342  0.0000  0.0007  0.0003  0.0085 </r>
        <r>  0.0193  0.0116  0.0002  0.0046  0.0342  0.0000  0.0007  0.0003  0.0085 </r>
        <r>  0.0180  0.0136  0.0002  0.0038  0.0276  0.0002  0.0007  0.0001  0.0123 </r>
        <r>  0.0001  0.0000  0.0044  0.0000  0.0000  0.0070  0.0000  0.0026  0.0001 </r>
        <r>  0.0001  0.0000  0.0049  0.0000  0.0001  0.0067  0.0000  0.0020  0.0000 </r>
        <r>  0.0001  0.0000  0.0049  0.0000  0.0001  0.0068  0.0000  0.0020  0.0000 </r>
        <r>  0.0001  0.0000  0.0045  0.0000  0.0000  0.0070  0.0000  0.0026  0.0001 </r>
        <r>  0.0086  0.0100  0.0000  0.0033  0.0143  0.0003  0.0003  0.0007  0.0049 </r>
        <r>  0.0092  0.0093  0.0000  0.0031  0.0156  0.0002  0.0003  0.0010  0.0050 </r>
        <r>  0.0091  0.0093  0.0000  0.0031  0.0156  0.0002  0.0003  0.0010  0.0051 </r>
        <r>  0.0086  0.0100  0.0000  0.0033  0.0144  0.0003  0.0003  0.0007  0.0049 </r>
        <r>  0.0000  0.0000  0.0044  0.0000  0.0000  0.0072  0.0000  0.0026  0.0000 </r>
        <r>  0.0000  0.0000  0.0048  0.0000  0.0000  0.0068  0.0000  0.0022  0.0000 </r>
        <r>  0.0000  0.0000  0.0048  0.0000  0.0000  0.0069  0.0000  0.0021  0.0000 </r>
        <r>  0.0000  0.0000  0.0045  0.0000  0.0000  0.0072  0.0000  0.0025  0.0000 </r>
        <r>  0.0156  0.0109  0.0004  0.0046  0.0261  0.0001  0.0003  0.0002  0.0058 </r>
        <r>  0.0168  0.0115  0.0004  0.0029  0.0234  0.0001  0.0003  0.0002  0.0109 </r>
        <r>  0.0168  0.0115  0.0004  0.0029  0.0235  0.0001  0.0003  0.0003  0.0110 </r>
        <r>  0.0155  0.0109  0.0004  0.0046  0.0261  0.0001  0.0003  0.0002  0.0058 </r>
       </set>
       <set comment="band 117">
        <r>  0.0171  0.0076  0.0035  0.0022  0.0103  0.0028  0.0001  0.0013  0.0040 </r>
        <r>  0.0173  0.0070  0.0035  0.0027  0.0113  0.0033  0.0001  0.0008  0.0032 </r>
        <r>  0.0173  0.0070  0.0035  0.0027  0.0113  0.0033  0.0001  0.0008  0.0032 </r>
        <r>  0.0171  0.0076  0.0035  0.0022  0.0103  0.0028  0.0001  0.0013  0.0040 </r>
        <r>  0.0119  0.0114  0.0011  0.0027  0.0085  0.0031  0.0016  0.0000  0.0044 </r>
        <r>  0.0123  0.0093  0.0011  0.0043  0.0111  0.0009  0.0016  0.0021  0.0022 </r>
        <r>  0.0123  0.0093  0.0011  0.0043  0.0111  0.0009  0.0016  0.0021  0.0022 </r>
        <r>  0.0118  0.0114  0.0011  0.0027  0.0085  0.0031  0.0016  0.0000  0.0045 </r>
        <r>  0.0000  0.0001  0.0071  0.0001  0.0001  0.0112  0.0000  0.0034  0.0004 </r>
        <r>  0.0000  0.0000  0.0071  0.0001  0.0002  0.0106  0.0000  0.0038  0.0003 </r>
        <r>  0.0000  0.0000  0.0072  0.0001  0.0002  0.0106  0.0000  0.0038  0.0003 </r>
        <r>  0.0000  0.0001  0.0071  0.0001  0.0001  0.0112  0.0000  0.0034  0.0004 </r>
        <r>  0.0110  0.0088  0.0018  0.0042  0.0100  0.0012  0.0014  0.0027  0.0018 </r>
        <r>  0.0113  0.0105  0.0018  0.0023  0.0078  0.0039  0.0014  0.0000  0.0043 </r>
        <r>  0.0113  0.0105  0.0018  0.0023  0.0078  0.0039  0.0014  0.0000  0.0043 </r>
        <r>  0.0111  0.0088  0.0017  0.0042  0.0100  0.0012  0.0014  0.0027  0.0018 </r>
        <r>  0.0156  0.0063  0.0038  0.0028  0.0101  0.0037  0.0001  0.0006  0.0025 </r>
        <r>  0.0159  0.0072  0.0039  0.0018  0.0090  0.0027  0.0001  0.0016  0.0039 </r>
        <r>  0.0159  0.0072  0.0038  0.0018  0.0090  0.0027  0.0001  0.0016  0.0038 </r>
        <r>  0.0156  0.0063  0.0038  0.0028  0.0101  0.0037  0.0001  0.0006  0.0025 </r>
       </set>
       <set comment="band 118">
        <r>  0.0173  0.0070  0.0035  0.0027  0.0114  0.0033  0.0001  0.0008  0.0032 </r>
        <r>  0.0170  0.0076  0.0035  0.0022  0.0103  0.0028  0.0001  0.0013  0.0040 </r>
        <r>  0.0170  0.0076  0.0035  0.0022  0.0103  0.0028  0.0001  0.0013  0.0040 </r>
        <r>  0.0173  0.0070  0.0035  0.0027  0.0113  0.0033  0.0001  0.0008  0.0032 </r>
        <r>  0.0123  0.0093  0.0011  0.0043  0.0111  0.0009  0.0016  0.0021  0.0022 </r>
        <r>  0.0118  0.0114  0.0011  0.0027  0.0085  0.0031  0.0016  0.0000  0.0044 </r>
        <r>  0.0118  0.0114  0.0011  0.0027  0.0085  0.0031  0.0016  0.0000  0.0044 </r>
        <r>  0.0124  0.0093  0.0011  0.0043  0.0111  0.0009  0.0016  0.0021  0.0022 </r>
        <r>  0.0000  0.0000  0.0072  0.0001  0.0002  0.0106  0.0000  0.0038  0.0003 </r>
        <r>  0.0000  0.0001  0.0071  0.0001  0.0001  0.0112  0.0000  0.0034  0.0004 </r>
        <r>  0.0000  0.0001  0.0071  0.0001  0.0001  0.0112  0.0000  0.0034  0.0004 </r>
        <r>  0.0000  0.0000  0.0072  0.0001  0.0002  0.0106  0.0000  0.0038  0.0003 </r>
        <r>  0.0113  0.0105  0.0018  0.0023  0.0078  0.0039  0.0014  0.0000  0.0043 </r>
        <r>  0.0111  0.0088  0.0018  0.0042  0.0101  0.0012  0.0014  0.0027  0.0018 </r>
        <r>  0.0111  0.0087  0.0018  0.0042  0.0101  0.0012  0.0014  0.0027  0.0018 </r>
        <r>  0.0113  0.0105  0.0018  0.0023  0.0078  0.0039  0.0014  0.0000  0.0043 </r>
        <r>  0.0158  0.0072  0.0039  0.0018  0.0089  0.0027  0.0001  0.0016  0.0038 </r>
        <r>  0.0156  0.0063  0.0038  0.0028  0.0101  0.0037  0.0001  0.0006  0.0025 </r>
        <r>  0.0156  0.0063  0.0038  0.0028  0.0101  0.0037  0.0001  0.0006  0.0025 </r>
        <r>  0.0158  0.0072  0.0038  0.0018  0.0090  0.0027  0.0001  0.0016  0.0038 </r>
       </set>
       <set comment="band 119">
        <r>  0.0000  0.0000  0.0261  0.0000  0.0001  0.0005  0.0005  0.0014  0.0000 </r>
        <r>  0.0004  0.0000  0.0091  0.0000  0.0003  0.0048  0.0000  0.0143  0.0001 </r>
        <r>  0.0004  0.0000  0.0091  0.0000  0.0003  0.0048  0.0000  0.0143  0.0001 </r>
        <r>  0.0000  0.0000  0.0260  0.0000  0.0001  0.0005  0.0005  0.0014  0.0000 </r>
        <r>  0.0013  0.0000  0.0236  0.0001  0.0008  0.0021  0.0000  0.0064  0.0003 </r>
        <r>  0.0004  0.0000  0.0120  0.0000  0.0007  0.0032  0.0003  0.0097  0.0002 </r>
        <r>  0.0004  0.0000  0.0120  0.0000  0.0007  0.0032  0.0003  0.0097  0.0002 </r>
        <r>  0.0013  0.0000  0.0236  0.0001  0.0008  0.0021  0.0000  0.0064  0.0003 </r>
        <r>  0.0016  0.0000  0.0019  0.0000  0.0017  0.0053  0.0002  0.0158  0.0005 </r>
        <r>  0.0002  0.0000  0.0342  0.0001  0.0000  0.0003  0.0000  0.0009  0.0000 </r>
        <r>  0.0002  0.0000  0.0341  0.0001  0.0001  0.0003  0.0000  0.0009  0.0000 </r>
        <r>  0.0016  0.0000  0.0019  0.0000  0.0017  0.0053  0.0002  0.0159  0.0005 </r>
        <r>  0.0001  0.0000  0.0349  0.0000  0.0002  0.0004  0.0000  0.0012  0.0001 </r>
        <r>  0.0014  0.0000  0.0017  0.0000  0.0015  0.0059  0.0001  0.0177  0.0005 </r>
        <r>  0.0014  0.0000  0.0017  0.0000  0.0015  0.0059  0.0001  0.0177  0.0005 </r>
        <r>  0.0001  0.0000  0.0349  0.0000  0.0002  0.0004  0.0000  0.0012  0.0001 </r>
        <r>  0.0001  0.0000  0.0132  0.0000  0.0003  0.0020  0.0007  0.0060  0.0001 </r>
        <r>  0.0004  0.0000  0.0222  0.0001  0.0003  0.0036  0.0001  0.0106  0.0001 </r>
        <r>  0.0004  0.0000  0.0223  0.0001  0.0003  0.0036  0.0001  0.0106  0.0001 </r>
        <r>  0.0001  0.0000  0.0132  0.0000  0.0003  0.0020  0.0007  0.0060  0.0001 </r>
       </set>
       <set comment="band 120">
        <r>  0.0004  0.0000  0.0091  0.0000  0.0003  0.0048  0.0000  0.0143  0.0001 </r>
        <r>  0.0000  0.0000  0.0260  0.0000  0.0000  0.0005  0.0005  0.0014  0.0000 </r>
        <r>  0.0000  0.0000  0.0261  0.0000  0.0001  0.0005  0.0005  0.0014  0.0000 </r>
        <r>  0.0004  0.0000  0.0091  0.0000  0.0003  0.0048  0.0000  0.0143  0.0001 </r>
        <r>  0.0004  0.0000  0.0120  0.0000  0.0007  0.0032  0.0003  0.0097  0.0002 </r>
        <r>  0.0013  0.0000  0.0236  0.0001  0.0008  0.0021  0.0000  0.0064  0.0003 </r>
        <r>  0.0013  0.0000  0.0237  0.0001  0.0008  0.0021  0.0000  0.0064  0.0003 </r>
        <r>  0.0004  0.0000  0.0120  0.0000  0.0007  0.0032  0.0003  0.0097  0.0002 </r>
        <r>  0.0002  0.0000  0.0342  0.0001  0.0000  0.0003  0.0000  0.0009  0.0000 </r>
        <r>  0.0016  0.0000  0.0019  0.0000  0.0017  0.0053  0.0002  0.0158  0.0005 </r>
        <r>  0.0016  0.0000  0.0019  0.0000  0.0017  0.0053  0.0002  0.0158  0.0005 </r>
        <r>  0.0002  0.0000  0.0342  0.0001  0.0000  0.0003  0.0000  0.0009  0.0000 </r>
        <r>  0.0014  0.0000  0.0017  0.0000  0.0015  0.0059  0.0001  0.0177  0.0005 </r>
        <r>  0.0001  0.0000  0.0349  0.0000  0.0002  0.0004  0.0000  0.0012  0.0001 </r>
        <r>  0.0001  0.0000  0.0349  0.0000  0.0002  0.0004  0.0000  0.0012  0.0001 </r>
        <r>  0.0014  0.0000  0.0017  0.0000  0.0015  0.0059  0.0001  0.0177  0.0005 </r>
        <r>  0.0004  0.0000  0.0222  0.0001  0.0003  0.0036  0.0001  0.0106  0.0001 </r>
        <r>  0.0001  0.0000  0.0132  0.0000  0.0003  0.0020  0.0007  0.0060  0.0001 </r>
        <r>  0.0001  0.0000  0.0132  0.0000  0.0003  0.0020  0.0007  0.0060  0.0001 </r>
        <r>  0.0004  0.0000  0.0222  0.0001  0.0003  0.0036  0.0001  0.0106  0.0001 </r>
       </set>
      </set>
     </set>
    </set>
   </array>
  </projected>
 </calculation>
 <structure name="finalpos" >
  <crystal>
   <varray name="basis" >
    <v>       5.63354200       0.00000000       0.20288700 </v>
    <v>       2.81311700       4.88089800       0.20288700 </v>
    <v>       0.00000000       0.00000000      39.15720000 </v>
   </varray>
   <i name="volume">   1076.69549949 </i>
   <varray name="rec_basis" >
    <v>       0.17750822      -0.10230728       0.00000000 </v>
    <v>       0.00000000       0.20488033       0.00000000 </v>
    <v>      -0.00091973      -0.00053147       0.02553809 </v>
   </varray>
  </crystal>
  <varray name="positions" >
   <v>       0.00712344       0.00745088       0.62114851 </v>
   <v>       0.00709474       0.50748682       0.62113810 </v>
   <v>       0.50704672       0.00746922       0.62115785 </v>
   <v>       0.50705365       0.50749207       0.62115375 </v>
   <v>       0.18644809       0.18524503       0.55991869 </v>
   <v>       0.18650407       0.68528391       0.55991437 </v>
   <v>       0.68641749       0.18523089       0.55992079 </v>
   <v>       0.68656832       0.68516963       0.55991881 </v>
   <v>       0.36889285       0.36935848       0.50068802 </v>
   <v>       0.36901600       0.86936772       0.50069132 </v>
   <v>       0.86888894       0.36922484       0.50066062 </v>
   <v>       0.86898929       0.86934106       0.50069022 </v>
   <v>       0.04411800       0.04411800       0.44117600 </v>
   <v>       0.04411800       0.54411800       0.44117600 </v>
   <v>       0.54411800       0.04411800       0.44117600 </v>
   <v>       0.54411800       0.54411800       0.44117600 </v>
   <v>       0.22058800       0.22058800       0.38235300 </v>
   <v>       0.22058800       0.72058800       0.38235300 </v>
   <v>       0.72058800       0.22058800       0.38235300 </v>
   <v>       0.72058800       0.72058800       0.38235300 </v>
  </varray>
  <varray name="selective"  type="logical" >
   <v type="logical" >  T  T  T </v>
   <v type="logical" >  T  T  T </v>
   <v type="logical" >  T  T  T </v>
   <v type="logical" >  T  T  T </v>
   <v type="logical" >  T  T  T </v>
   <v type="logical" >  T  T  T </v>
   <v type="logical" >  T  T  T </v>
   <v type="logical" >  T  T  T </v>
   <v type="logical" >  T  T  T </v>
   <v type="logical" >  T  T  T </v>
   <v type="logical" >  T  T  T </v>
   <v type="logical" >  T  T  T </v>
   <v type="logical" >  F  F  F </v>
   <v type="logical" >  F  F  F </v>
   <v type="logical" >  F  F  F </v>
   <v type="logical" >  F  F  F </v>
   <v type="logical" >  F  F  F </v>
   <v type="logical" >  F  F  F </v>
   <v type="logical" >  F  F  F </v>
   <v type="logical" >  F  F  F </v>
  </varray>
  <nose>
   <v>      -3.00000000       0.00000000       0.00010000       0.00010000 </v>
  </nose>
 </structure>
</modeling>
