 running on   16 total cores
 distrk:  each k-point on   16 cores,    1 groups
 distr:  one band on    4 cores,    4 groups
 vasp.6.2.0 18Jan21 (build Feb  1 2022 01:28:57) complex                         
 POSCAR found type information on POSCAR Pt
 POSCAR found :  1 types and      20 ions
 scaLAPACK will be used
 -----------------------------------------------------------------------------
|                                                                             |
|           W    W    AA    RRRRR   N    N  II  N    N   GGGG   !!!           |
|           W    W   A  A   R    R  NN   N  II  NN   N  G    G  !!!           |
|           W    W  A    A  R    R  N N  N  II  N N  N  G       !!!           |
|           W WW W  AAAAAA  RRRRR   N  N N  II  N  N N  G  GGG   !            |
|           WW  WW  A    A  R   R   N   NN  II  N   NN  G    G                |
|           W    W  A    A  R    R  N    N  II  N    N   GGGG   !!!           |
|                                                                             |
|     The real-space projection scheme for the treatment of the non-local     |
|     pseudopotentials has been switched on but on file POTCAR I have not     |
|     found any entries, signalling me that you have never performed a        |
|     real-space optimization of all non-local projectors! BE WARNED that     |
|     a calculation using the real-space projection scheme together with      |
|     non-local projectors which were not real-space optimized (according     |
|     to the plane-wave cutoff used in this calculation) might give more      |
|     or less inaccurate results. I hope you know what you are doing.         |
|                                                                             |
 -----------------------------------------------------------------------------

 -----------------------------------------------------------------------------
|                                                                             |
|               ----> ADVICE to this user running VASP <----                  |
|                                                                             |
|     You enforced a specific xc type in the INCAR file but a different       |
|     type was found in the POTCAR file.                                      |
|     I HOPE YOU KNOW WHAT YOU ARE DOING!                                     |
|                                                                             |
 -----------------------------------------------------------------------------

 LDA part: xc-table for Pade appr. of Perdew
 POSCAR, INCAR and KPOINTS ok, starting setup
 FFT: planning ...
 WAVECAR not read
 WARNING: random wavefunctions but no delay for mixing, default for NELMDL
 entering main loop
       N       E                     dE             d eps       ncg     rms          rms(c)
DAV:   1     0.134741065101E+04    0.13474E+04   -0.74620E+04   960   0.116E+03
DAV:   2     0.446323279457E+01   -0.13429E+04   -0.12296E+04  1208   0.255E+02
DAV:   3    -0.108490749188E+03   -0.11295E+03   -0.10356E+03  1136   0.707E+01
DAV:   4    -0.113466268331E+03   -0.49755E+01   -0.47091E+01  1328   0.140E+01
DAV:   5    -0.113568441835E+03   -0.10217E+00   -0.10111E+00  1152   0.206E+00    0.431E+01
DAV:   6    -0.132189464889E+03   -0.18621E+02   -0.57159E+01  1088   0.358E+01    0.637E+01
DAV:   7    -0.148062384033E+03   -0.15873E+02   -0.87112E+00  1176   0.975E+00    0.698E+01
DAV:   8    -0.274649710999E+03   -0.12659E+03   -0.88189E+01  1600   0.542E+01    0.105E+02
DAV:   9    -0.401114445116E+03   -0.12646E+03   -0.14441E+02  1160   0.263E+01    0.137E+02
DAV:  10    -0.400983864042E+03    0.13058E+00   -0.68996E+01  1240   0.129E+01    0.138E+02
DAV:  11    -0.313140075022E+03    0.87844E+02   -0.68693E+01  1216   0.219E+01    0.121E+02
DAV:  12    -0.362147237267E+03   -0.49007E+02   -0.24426E+01  1160   0.190E+01    0.113E+02
DAV:  13    -0.131421805556E+03    0.23073E+03   -0.26859E+03  1312   0.913E+01    0.594E+01
DAV:  14    -0.162919679224E+03   -0.31498E+02   -0.41370E+02  1240   0.454E+01    0.590E+01
DAV:  15    -0.165313184391E+03   -0.23935E+01   -0.86374E+01  1384   0.212E+01    0.584E+01
DAV:  16    -0.168519219631E+03   -0.32060E+01   -0.88554E+00  1360   0.705E+00    0.612E+01
DAV:  17    -0.166550612044E+03    0.19686E+01   -0.17215E+00  1296   0.255E+00    0.602E+01
DAV:  18    -0.155100764088E+03    0.11450E+02   -0.13028E+01  1072   0.919E+00    0.531E+01
DAV:  19    -0.121760087096E+03    0.33341E+02   -0.71719E+01  1096   0.298E+01    0.311E+01
DAV:  20    -0.115262717844E+03    0.64974E+01   -0.14524E+01  1056   0.121E+01    0.209E+01
DAV:  21    -0.113054920681E+03    0.22078E+01   -0.27745E+00  1120   0.643E+00    0.207E+01
DAV:  22    -0.116337279968E+03   -0.32824E+01   -0.60703E+00  1184   0.103E+01    0.303E+01
DAV:  23    -0.118722648073E+03   -0.23854E+01   -0.29756E+00  1088   0.755E+00    0.265E+01
DAV:  24    -0.117700189647E+03    0.10225E+01   -0.45925E-01  1160   0.324E+00    0.238E+01
DAV:  25    -0.117028076737E+03    0.67211E+00   -0.21509E-01  1112   0.186E+00    0.225E+01
DAV:  26    -0.116991303281E+03    0.36773E-01   -0.17119E-01  1056   0.131E+00    0.220E+01
DAV:  27    -0.116383081008E+03    0.60822E+00   -0.22648E-01  1088   0.155E+00    0.212E+01
DAV:  28    -0.114822215738E+03    0.15609E+01   -0.16432E+00  1032   0.442E+00    0.184E+01
DAV:  29    -0.114857168262E+03   -0.34953E-01   -0.12041E-01  1104   0.106E+00    0.187E+01
DAV:  30    -0.114919254540E+03   -0.62086E-01   -0.54349E-03  1184   0.248E-01    0.188E+01
DAV:  31    -0.113150761899E+03    0.17685E+01   -0.64792E-01  1008   0.293E+00    0.169E+01
DAV:  32    -0.112099016285E+03    0.10517E+01   -0.81322E-01  1104   0.331E+00    0.160E+01
DAV:  33    -0.110929630446E+03    0.11694E+01   -0.68125E-01  1072   0.303E+00    0.162E+01
DAV:  34    -0.109795756883E+03    0.11339E+01   -0.34787E+00  1120   0.708E+00    0.137E+01
DAV:  35    -0.109168406105E+03    0.62735E+00   -0.40764E-01  1176   0.210E+00    0.119E+01
DAV:  36    -0.109152051846E+03    0.16354E-01   -0.61506E-01  1072   0.202E+00    0.125E+01
DAV:  37    -0.109109418848E+03    0.42633E-01   -0.19166E-01  1104   0.119E+00    0.126E+01
DAV:  38    -0.108884787626E+03    0.22463E+00   -0.53136E-02  1096   0.893E-01    0.122E+01
DAV:  39    -0.108953070346E+03   -0.68283E-01   -0.23754E-01  1128   0.144E+00    0.139E+01
DAV:  40    -0.108592679115E+03    0.36039E+00   -0.12624E-01  1152   0.153E+00    0.126E+01
DAV:  41    -0.107883658970E+03    0.70902E+00   -0.68428E-01  1104   0.255E+00    0.907E+00
DAV:  42    -0.107990994874E+03   -0.10734E+00   -0.18089E-01  1080   0.119E+00    0.102E+01
DAV:  43    -0.107851092876E+03    0.13990E+00   -0.21640E-02  1160   0.517E-01    0.972E+00
DAV:  44    -0.107637213417E+03    0.21388E+00   -0.33658E-02  1128   0.737E-01    0.869E+00
DAV:  45    -0.107452564467E+03    0.18465E+00   -0.29349E-02  1080   0.695E-01    0.772E+00
DAV:  46    -0.107449674197E+03    0.28903E-02   -0.18040E-02  1176   0.434E-01    0.827E+00
DAV:  47    -0.107265786382E+03    0.18389E+00   -0.58062E-02  1008   0.917E-01    0.684E+00
DAV:  48    -0.107258772095E+03    0.70143E-02   -0.13459E-02  1096   0.335E-01    0.650E+00
DAV:  49    -0.107219458678E+03    0.39313E-01   -0.16683E-02  1040   0.786E-01    0.576E+00
DAV:  50    -0.107221866998E+03   -0.24083E-02   -0.20060E-03  1056   0.139E-01    0.582E+00
DAV:  51    -0.107412827065E+03   -0.19096E+00   -0.69566E-01  1024   0.339E+00    0.706E+00
DAV:  52    -0.107426471531E+03   -0.13644E-01   -0.33399E-01  1048   0.191E+00    0.651E+00
DAV:  53    -0.107348263401E+03    0.78208E-01   -0.96717E-02  1040   0.973E-01    0.570E+00
DAV:  54    -0.107349618874E+03   -0.13555E-02   -0.21788E-03  1088   0.140E-01    0.574E+00
DAV:  55    -0.107350013569E+03   -0.39470E-03   -0.95786E-05  1304   0.330E-02    0.574E+00
DAV:  56    -0.107190389531E+03    0.15962E+00   -0.50546E-01  1048   0.226E+00    0.458E+00
DAV:  57    -0.107208343588E+03   -0.17954E-01   -0.20434E-02  1008   0.481E-01    0.477E+00
DAV:  58    -0.107231789731E+03   -0.23446E-01   -0.58328E-03  1112   0.392E-01    0.504E+00
DAV:  59    -0.107250569055E+03   -0.18779E-01   -0.31967E-03  1080   0.189E-01    0.518E+00
DAV:  60    -0.107256308560E+03   -0.57395E-02   -0.12031E-03  1104   0.115E-01    0.522E+00
DAV:  61    -0.107135265710E+03    0.12104E+00   -0.96855E-01  1176   0.250E+00    0.577E+00
DAV:  62    -0.107107425277E+03    0.27840E-01   -0.33247E-02  1040   0.573E-01    0.557E+00
DAV:  63    -0.107103230047E+03    0.41952E-02   -0.25015E-02  1072   0.499E-01    0.555E+00
DAV:  64    -0.107133417487E+03   -0.30187E-01   -0.31239E-02  1128   0.634E-01    0.599E+00
DAV:  65    -0.107156455154E+03   -0.23038E-01   -0.21062E-02  1040   0.614E-01    0.607E+00
DAV:  66    -0.107136271179E+03    0.20184E-01   -0.63965E-01  1136   0.304E+00    0.615E+00
DAV:  67    -0.107110940037E+03    0.25331E-01   -0.74116E-02  1056   0.108E+00    0.533E+00
DAV:  68    -0.107099058598E+03    0.11881E-01   -0.20313E-02  1056   0.449E-01    0.492E+00
DAV:  69    -0.107047113797E+03    0.51945E-01   -0.11627E-01  1176   0.117E+00    0.436E+00
DAV:  70    -0.107045703984E+03    0.14098E-02   -0.13550E-02  1048   0.382E-01    0.387E+00
DAV:  71    -0.107080194636E+03   -0.34491E-01   -0.14290E-01  1048   0.112E+00    0.378E+00
DAV:  72    -0.107018963974E+03    0.61231E-01   -0.95925E-02  1056   0.996E-01    0.326E+00
DAV:  73    -0.107008229538E+03    0.10734E-01   -0.43149E-02  1032   0.793E-01    0.287E+00
DAV:  74    -0.106978762790E+03    0.29467E-01   -0.10642E-01  1064   0.107E+00    0.292E+00
DAV:  75    -0.106963697691E+03    0.15065E-01   -0.18922E-02  1024   0.468E-01    0.228E+00
DAV:  76    -0.107053509813E+03   -0.89812E-01   -0.32508E-01  1064   0.185E+00    0.553E+00
DAV:  77    -0.106959877433E+03    0.93632E-01   -0.16554E-01  1064   0.128E+00    0.242E+00
DAV:  78    -0.106954013782E+03    0.58637E-02   -0.11073E-02  1032   0.417E-01    0.244E+00
DAV:  79    -0.106986341456E+03   -0.32328E-01   -0.46529E-02  1120   0.714E-01    0.373E+00
DAV:  80    -0.106968795917E+03    0.17546E-01   -0.72528E-03  1056   0.309E-01
 -----------------------------------------------------------------------------
|                                                                             |
|           W    W    AA    RRRRR   N    N  II  N    N   GGGG   !!!           |
|           W    W   A  A   R    R  NN   N  II  NN   N  G    G  !!!           |
|           W    W  A    A  R    R  N N  N  II  N N  N  G       !!!           |
|           W WW W  AAAAAA  RRRRR   N  N N  II  N  N N  G  GGG   !            |
|           WW  WW  A    A  R   R   N   NN  II  N   NN  G    G                |
|           W    W  A    A  R    R  N    N  II  N    N   GGGG   !!!           |
|                                                                             |
|     The electronic self-consistency was not achieved in the given           |
|     number of steps (NELM). The forces and other quantities evaluated       |
|     might not be reliable so examine the results carefully. If you find     |
|     spurious results, we suggest increasing NELM, if you were close to      |
|     convergence or switching to a different ALGO or adjusting the           |
|     density mixing parameters otherwise.                                    |
|                                                                             |
 -----------------------------------------------------------------------------

   1 F= -.10696880E+03 E0= -.10690437E+03  d E =-.106969E+03
 curvature:   0.00 expect dE= 0.000E+00 dE for cont linesearch  0.000E+00
 trial: gam= 0.00000 g(F)=  0.554E-01 g(S)=  0.000E+00 ort = 0.000E+00 (trialstep = 0.100E+01)
 search vector abs. value=  0.554E-01
 bond charge predicted
       N       E                     dE             d eps       ncg     rms          rms(c)
DAV:   1    -0.107005572871E+03   -0.19231E-01   -0.15541E+01   960   0.904E+00    0.306E+00
DAV:   2    -0.145725026065E+03   -0.38719E+02   -0.43171E+01  1496   0.489E+01    0.475E+01
DAV:   3    -0.107858602471E+03    0.37866E+02   -0.47096E+01  1440   0.277E+01    0.121E+01
DAV:   4    -0.107272990368E+03    0.58561E+00   -0.36626E+00  1016   0.685E+00    0.765E+00
DAV:   5    -0.107228973926E+03    0.44016E-01   -0.51617E-01  1064   0.236E+00    0.682E+00
DAV:   6    -0.107061138208E+03    0.16784E+00   -0.10183E+00  1392   0.327E+00    0.309E+00
DAV:   7    -0.107037158559E+03    0.23980E-01   -0.32339E-01  1128   0.165E+00    0.308E+00
DAV:   8    -0.106985714316E+03    0.51444E-01   -0.18328E-01  1096   0.148E+00    0.172E+00
DAV:   9    -0.106990268320E+03   -0.45540E-02   -0.17486E-02  1072   0.346E-01    0.201E+00
DAV:  10    -0.106983030829E+03    0.72375E-02   -0.22485E-02  1088   0.381E-01    0.131E+00
DAV:  11    -0.107007711374E+03   -0.24681E-01   -0.75638E-02  1344   0.946E-01    0.241E+00
DAV:  12    -0.107004345964E+03    0.33654E-02   -0.56618E-03  1032   0.245E-01    0.219E+00
DAV:  13    -0.106988132526E+03    0.16213E-01   -0.12798E-02  1360   0.378E-01    0.131E+00
DAV:  14    -0.106980687739E+03    0.74448E-02   -0.45802E-03  1104   0.260E-01    0.861E-01
DAV:  15    -0.106979509109E+03    0.11786E-02   -0.31985E-03  1104   0.153E-01    0.788E-01
DAV:  16    -0.106979519366E+03   -0.10257E-04   -0.13347E-03  1072   0.895E-02    0.764E-01
DAV:  17    -0.106978126905E+03    0.13925E-02   -0.16491E-03  1216   0.133E-01    0.608E-01
DAV:  18    -0.106976215757E+03    0.19111E-02   -0.26580E-03  1240   0.185E-01    0.357E-01
DAV:  19    -0.106975773289E+03    0.44247E-03   -0.51574E-04  1040   0.864E-02    0.273E-01
DAV:  20    -0.106975733542E+03    0.39747E-04   -0.59350E-05  1080   0.219E-02    0.268E-01
DAV:  21    -0.106975706413E+03    0.27129E-04   -0.25975E-05  1016   0.126E-02    0.251E-01
DAV:  22    -0.106975620423E+03    0.85990E-04   -0.75514E-05  1064   0.269E-02    0.193E-01
DAV:  23    -0.106975600336E+03    0.20087E-04   -0.18469E-04  1256   0.497E-02    0.214E-01
DAV:  24    -0.106975587767E+03    0.12569E-04   -0.13510E-05  1008   0.117E-02    0.214E-01
DAV:  25    -0.106975526018E+03    0.61748E-04   -0.14679E-05   928   0.150E-02    0.167E-01
DAV:  26    -0.106975496063E+03    0.29955E-04   -0.19062E-05  1080   0.187E-02    0.133E-01
DAV:  27    -0.106975523681E+03   -0.27618E-04   -0.37261E-05  1032   0.199E-02    0.157E-01
DAV:  28    -0.106975523296E+03    0.38571E-06   -0.10589E-05   984   0.110E-02    0.156E-01
DAV:  29    -0.106975506903E+03    0.16392E-04   -0.10232E-06   576   0.523E-03    0.141E-01
DAV:  30    -0.106975501809E+03    0.50948E-05   -0.40491E-07   504   0.210E-03    0.135E-01
DAV:  31    -0.106975456271E+03    0.45537E-04   -0.36538E-05   896   0.199E-02    0.741E-02
DAV:  32    -0.106975444015E+03    0.12256E-04   -0.41425E-05  1024   0.243E-02    0.184E-02
DAV:  33    -0.106975448088E+03   -0.40731E-05   -0.39867E-06   728   0.621E-03    0.222E-02
DAV:  34    -0.106975450315E+03   -0.22271E-05   -0.14124E-06   576   0.394E-03    0.300E-02
DAV:  35    -0.106975448320E+03    0.19950E-05   -0.16955E-06   552   0.467E-03    0.187E-02
DAV:  36    -0.106975447223E+03    0.10978E-05   -0.32052E-06   552   0.581E-03    0.763E-03
DAV:  37    -0.106975447179E+03    0.43103E-07   -0.28287E-07   504   0.219E-03
   2 F= -.10697545E+03 E0= -.10691159E+03  d E =-.665126E-02
 trial-energy change:   -0.006651  1 .order   -0.043325   -0.055432   -0.031218
 step:   2.2893(harm=  2.2893)  dis= 0.04938  next Energy=  -107.032246 (dE=-0.634E-01)
 bond charge predicted
       N       E                     dE             d eps       ncg     rms          rms(c)
DAV:   1    -0.106975396887E+03    0.50336E-04   -0.25673E+01   960   0.115E+01    0.125E+00
DAV:   2    -0.108014705926E+03   -0.10393E+01   -0.27182E+00  1136   0.596E+00    0.140E+01
DAV:   3    -0.107483055054E+03    0.53165E+00   -0.58288E-01  1056   0.192E+00    0.816E+00
DAV:   4    -0.107333808785E+03    0.14925E+00   -0.49758E-02  1104   0.816E-01    0.703E+00
DAV:   5    -0.107187703383E+03    0.14611E+00   -0.45065E-01  1360   0.251E+00    0.426E+00
DAV:   6    -0.107145714160E+03    0.41989E-01   -0.68338E-01  1248   0.290E+00    0.543E+00
DAV:   7    -0.107187924007E+03   -0.42210E-01   -0.29356E-02  1040   0.648E-01    0.582E+00
DAV:   8    -0.107215720336E+03   -0.27796E-01   -0.24433E-03  1072   0.256E-01    0.625E+00
DAV:   9    -0.107175643269E+03    0.40077E-01   -0.35846E-03  1072   0.456E-01    0.559E+00
DAV:  10    -0.107039377765E+03    0.13627E+00   -0.11467E-01  1264   0.123E+00    0.234E+00
DAV:  11    -0.107036669158E+03    0.27086E-02   -0.26192E-02  1080   0.776E-01    0.195E+00
DAV:  12    -0.107034674494E+03    0.19947E-02   -0.10777E-02  1056   0.252E-01    0.185E+00
DAV:  13    -0.107020931148E+03    0.13743E-01   -0.66846E-03  1144   0.264E-01    0.146E+00
DAV:  14    -0.107019517104E+03    0.14140E-02   -0.42573E-03  1096   0.276E-01    0.156E+00
DAV:  15    -0.107019106599E+03    0.41051E-03   -0.23788E-03  1064   0.141E-01    0.161E+00
DAV:  16    -0.107010420948E+03    0.86857E-02   -0.55408E-03  1184   0.222E-01    0.123E+00
DAV:  17    -0.107006263671E+03    0.41573E-02   -0.23724E-03  1088   0.145E-01    0.103E+00
DAV:  18    -0.107005665384E+03    0.59829E-03   -0.17393E-04  1016   0.383E-02    0.101E+00
DAV:  19    -0.107006208433E+03   -0.54305E-03   -0.10712E-04  1080   0.327E-02    0.103E+00
DAV:  20    -0.107005886308E+03    0.32212E-03   -0.97156E-05  1000   0.386E-02    0.100E+00
DAV:  21    -0.107004375313E+03    0.15110E-02   -0.39682E-04  1064   0.645E-02    0.910E-01
DAV:  22    -0.107003639065E+03    0.73625E-03   -0.13838E-04  1072   0.372E-02    0.873E-01
DAV:  23    -0.107002362466E+03    0.12766E-02   -0.28484E-04  1048   0.661E-02    0.800E-01
DAV:  24    -0.107001394668E+03    0.96780E-03   -0.23045E-04  1104   0.524E-02    0.723E-01
DAV:  25    -0.107001347742E+03    0.46927E-04   -0.23793E-05   976   0.174E-02    0.717E-01
DAV:  26    -0.107001100129E+03    0.24761E-03   -0.13378E-05   896   0.130E-02    0.698E-01
DAV:  27    -0.107000118170E+03    0.98196E-03   -0.21007E-04  1112   0.559E-02    0.623E-01
DAV:  28    -0.106999356669E+03    0.76150E-03   -0.17899E-04  1096   0.486E-02    0.559E-01
DAV:  29    -0.106999260174E+03    0.96496E-04   -0.11465E-05  1008   0.104E-02    0.553E-01
DAV:  30    -0.106998844731E+03    0.41544E-03   -0.51955E-05  1072   0.323E-02    0.511E-01
DAV:  31    -0.106997141626E+03    0.17031E-02   -0.19705E-03  1072   0.180E-01    0.277E-01
DAV:  32    -0.106996710579E+03    0.43105E-03   -0.61846E-04  1080   0.971E-02    0.171E-01
DAV:  33    -0.106996635392E+03    0.75187E-04   -0.60657E-05  1168   0.302E-02    0.140E-01
DAV:  34    -0.106996614114E+03    0.21278E-04   -0.10487E-05  1000   0.149E-02    0.121E-01
DAV:  35    -0.106996558700E+03    0.55414E-04   -0.14262E-04  1080   0.492E-02    0.727E-02
DAV:  36    -0.106996546808E+03    0.11892E-04   -0.17524E-05  1064   0.141E-02    0.454E-02
DAV:  37    -0.106996543790E+03    0.30176E-05   -0.11051E-06   592   0.598E-03    0.312E-02
DAV:  38    -0.106996545580E+03   -0.17899E-05   -0.45120E-07   536   0.341E-03    0.313E-02
DAV:  39    -0.106996545171E+03    0.40882E-06   -0.32517E-06   616   0.744E-03
   3 F= -.10699655E+03 E0= -.10693320E+03  d E =-.277493E-01
 curvature:  -1.14 expect dE=-0.131E-01 dE for cont linesearch -0.598E-06
 trial: gam= 0.20976 g(F)=  0.115E-01 g(S)=  0.000E+00 ort =-0.170E-03 (trialstep = 0.126E+01)
 search vector abs. value=  0.138E-01
 bond charge predicted
       N       E                     dE             d eps       ncg     rms          rms(c)
DAV:   1    -0.107004775052E+03   -0.82295E-02   -0.59313E+00   960   0.565E+00    0.412E-01
DAV:   2    -0.107015772499E+03   -0.10997E-01   -0.86912E-02  1016   0.939E-01    0.103E+00
DAV:   3    -0.107064124691E+03   -0.48352E-01   -0.14948E-01  1184   0.139E+00    0.332E+00
DAV:   4    -0.107017005522E+03    0.47119E-01   -0.78764E-02  1120   0.918E-01    0.117E+00
DAV:   5    -0.107015916297E+03    0.10892E-02   -0.14617E-03  1112   0.184E-01    0.120E+00
DAV:   6    -0.107017152427E+03   -0.12361E-02   -0.64526E-03  1168   0.396E-01    0.105E+00
DAV:   7    -0.107035979441E+03   -0.18827E-01   -0.76401E-02  1464   0.865E-01    0.215E+00
DAV:   8    -0.107010695821E+03    0.25284E-01   -0.56924E-02  1352   0.805E-01    0.341E-01
DAV:   9    -0.107010213144E+03    0.48268E-03   -0.18530E-03  1008   0.156E-01    0.165E-01
DAV:  10    -0.107010254837E+03   -0.41693E-04   -0.52375E-04  1080   0.919E-02    0.181E-01
DAV:  11    -0.107010148112E+03    0.10672E-03   -0.32957E-04  1104   0.453E-02    0.142E-01
DAV:  12    -0.107010051826E+03    0.96286E-04   -0.22858E-04  1080   0.482E-02    0.103E-01
DAV:  13    -0.107010018391E+03    0.33436E-04   -0.99969E-05  1064   0.292E-02    0.520E-02
DAV:  14    -0.107010020669E+03   -0.22783E-05   -0.26181E-05  1056   0.183E-02    0.594E-02
DAV:  15    -0.107010022781E+03   -0.21125E-05   -0.13321E-05   760   0.881E-03    0.641E-02
DAV:  16    -0.107010020483E+03    0.22986E-05   -0.87517E-06   816   0.790E-03    0.624E-02
DAV:  17    -0.107010014331E+03    0.61513E-05   -0.30436E-06   592   0.653E-03    0.509E-02
DAV:  18    -0.107010006356E+03    0.79749E-05   -0.59357E-06   592   0.921E-03    0.238E-02
DAV:  19    -0.107010006047E+03    0.30902E-06   -0.13218E-06   544   0.388E-03
   4 F= -.10701001E+03 E0= -.10694696E+03  d E =-.134609E-01
 trial-energy change:   -0.013461  1 .order   -0.012244   -0.014367   -0.010122
 step:   4.2574(harm=  4.2574)  dis= 0.03613  next Energy=  -107.020858 (dE=-0.243E-01)
 bond charge predicted
       N       E                     dE             d eps       ncg     rms          rms(c)
DAV:   1    -0.106995824954E+03    0.14181E-01   -0.33772E+01   960   0.135E+01    0.973E-01
DAV:   2    -0.107110902209E+03   -0.11508E+00   -0.65590E-01  1024   0.246E+00    0.464E+00
DAV:   3    -0.107710728854E+03   -0.59983E+00   -0.24461E+00  1368   0.561E+00    0.111E+01
DAV:   4    -0.107058528979E+03    0.65220E+00   -0.36610E+00  1440   0.409E+00    0.220E+00
DAV:   5    -0.107046820818E+03    0.11708E-01   -0.19122E-02  1056   0.488E-01    0.211E+00
DAV:   6    -0.107066746548E+03   -0.19926E-01   -0.18578E-02  1144   0.912E-01    0.274E+00
DAV:   7    -0.107047294774E+03    0.19452E-01   -0.64090E-03  1072   0.448E-01    0.209E+00
DAV:   8    -0.107026366653E+03    0.20928E-01   -0.48893E-02  1184   0.741E-01    0.435E-01
DAV:   9    -0.107027354319E+03   -0.98767E-03   -0.10710E-02  1024   0.381E-01    0.656E-01
DAV:  10    -0.107040160378E+03   -0.12806E-01   -0.32612E-02  1200   0.625E-01    0.161E+00
DAV:  11    -0.107031127257E+03    0.90331E-02   -0.99563E-03  1096   0.322E-01    0.926E-01
DAV:  12    -0.107026332759E+03    0.47945E-02   -0.17003E-02  1480   0.414E-01    0.391E-01
DAV:  13    -0.107025547926E+03    0.78483E-03   -0.11918E-03  1064   0.194E-01    0.192E-01
DAV:  14    -0.107025615924E+03   -0.67998E-04   -0.63622E-04  1080   0.825E-02    0.213E-01
DAV:  15    -0.107025572611E+03    0.43313E-04   -0.18356E-04  1040   0.371E-02    0.189E-01
DAV:  16    -0.107025485702E+03    0.86910E-04   -0.17543E-04  1072   0.408E-02    0.134E-01
DAV:  17    -0.107025448494E+03    0.37208E-04   -0.10975E-04  1096   0.318E-02    0.862E-02
DAV:  18    -0.107025442615E+03    0.58787E-05   -0.20934E-05  1072   0.195E-02    0.722E-02
DAV:  19    -0.107025445038E+03   -0.24230E-05   -0.12185E-05  1056   0.144E-02    0.717E-02
DAV:  20    -0.107025444611E+03    0.42663E-06   -0.10441E-05   640   0.823E-03    0.686E-02
DAV:  21    -0.107025437391E+03    0.72208E-05   -0.80159E-06   656   0.841E-03    0.536E-02
DAV:  22    -0.107025430971E+03    0.64194E-05   -0.81754E-06   632   0.991E-03    0.385E-02
DAV:  23    -0.107025428560E+03    0.24114E-05   -0.26536E-06   592   0.610E-03    0.330E-02
DAV:  24    -0.107025427413E+03    0.11469E-05   -0.61990E-07   504   0.318E-03    0.287E-02
DAV:  25    -0.107025427209E+03    0.20344E-06   -0.24246E-07   480   0.174E-03
   5 F= -.10702543E+03 E0= -.10696344E+03  d E =-.288820E-01
 curvature:  -2.58 expect dE=-0.215E-01 dE for cont linesearch -0.154E-02
 ZBRENT: increasing intervall
 opt :  10.2565  next Energy=  -107.011605 (dE=-0.151E-01)
 bond charge predicted
       N       E                     dE             d eps       ncg     rms          rms(c)
DAV:   1    -0.106868338927E+03    0.15709E+00   -0.13546E+02   960   0.271E+01    0.193E+00
DAV:   2    -0.107569508024E+03   -0.70117E+00   -0.33850E+00  1048   0.555E+00    0.108E+01
DAV:   3    -0.110056752641E+03   -0.24872E+01   -0.14484E+01  1344   0.125E+01    0.184E+01
DAV:   4    -0.107317667452E+03    0.27391E+01   -0.12667E+01  1280   0.840E+00    0.626E+00
DAV:   5    -0.107214957878E+03    0.10271E+00   -0.11248E-01  1008   0.102E+00    0.569E+00
DAV:   6    -0.107291632334E+03   -0.76674E-01   -0.95266E-02  1192   0.126E+00    0.701E+00
DAV:   7    -0.107230939065E+03    0.60693E-01   -0.67698E-02  1080   0.823E-01    0.633E+00
DAV:   8    -0.107114840011E+03    0.11610E+00   -0.64618E-02  1064   0.847E-01    0.446E+00
DAV:   9    -0.107046153655E+03    0.68686E-01   -0.11128E-01  1152   0.894E-01    0.278E+00
DAV:  10    -0.107020785802E+03    0.25368E-01   -0.69430E-02  1160   0.121E+00    0.255E+00
DAV:  11    -0.107039551131E+03   -0.18765E-01   -0.54153E-02  1096   0.658E-01    0.301E+00
DAV:  12    -0.107022179546E+03    0.17372E-01   -0.17957E-02  1096   0.364E-01    0.239E+00
DAV:  13    -0.106998783284E+03    0.23396E-01   -0.23745E-01  1552   0.147E+00    0.155E+00
DAV:  14    -0.106992809524E+03    0.59738E-02   -0.80967E-03  1016   0.255E-01    0.981E-01
DAV:  15    -0.106989619289E+03    0.31902E-02   -0.56945E-03  1136   0.280E-01    0.578E-01
DAV:  16    -0.106990495908E+03   -0.87662E-03   -0.44539E-03  1088   0.245E-01    0.557E-01
DAV:  17    -0.106989341272E+03    0.11546E-02   -0.23380E-03  1080   0.170E-01    0.436E-01
DAV:  18    -0.106989225678E+03    0.11559E-03   -0.18745E-03  1080   0.137E-01    0.493E-01
DAV:  19    -0.106989139122E+03    0.86556E-04   -0.21242E-03  1096   0.155E-01    0.353E-01
DAV:  20    -0.106989642806E+03   -0.50368E-03   -0.13506E-03  1120   0.113E-01    0.349E-01
DAV:  21    -0.106989792961E+03   -0.15016E-03   -0.18407E-04  1024   0.418E-02    0.352E-01
DAV:  22    -0.106989670668E+03    0.12229E-03   -0.13233E-04  1112   0.352E-02    0.322E-01
DAV:  23    -0.106989435792E+03    0.23488E-03   -0.44903E-04  1200   0.598E-02    0.306E-01
DAV:  24    -0.106989208160E+03    0.22763E-03   -0.90874E-05  1080   0.376E-02    0.259E-01
DAV:  25    -0.106989199312E+03    0.88484E-05   -0.40295E-05  1056   0.188E-02    0.243E-01
DAV:  26    -0.106989226896E+03   -0.27585E-04   -0.12941E-05   976   0.122E-02    0.238E-01
DAV:  27    -0.106989145354E+03    0.81542E-04   -0.43697E-05   968   0.234E-02    0.218E-01
DAV:  28    -0.106989044601E+03    0.10075E-03   -0.38482E-05  1072   0.238E-02    0.186E-01
DAV:  29    -0.106988987634E+03    0.56966E-04   -0.12772E-05  1008   0.144E-02    0.163E-01
DAV:  30    -0.106988930609E+03    0.57025E-04   -0.21853E-05   960   0.197E-02    0.139E-01
DAV:  31    -0.106988876475E+03    0.54134E-04   -0.33176E-05  1096   0.239E-02    0.111E-01
DAV:  32    -0.106988840289E+03    0.36186E-04   -0.20255E-05  1024   0.190E-02    0.770E-02
DAV:  33    -0.106988821018E+03    0.19270E-04   -0.17255E-05   968   0.177E-02    0.468E-02
DAV:  34    -0.106988819268E+03    0.17504E-05   -0.18661E-06   560   0.495E-03    0.424E-02
DAV:  35    -0.106988813870E+03    0.53981E-05   -0.52558E-06   800   0.106E-02    0.255E-02
DAV:  36    -0.106988812325E+03    0.15449E-05   -0.13202E-05  1072   0.173E-02    0.240E-02
DAV:  37    -0.106988812880E+03   -0.55548E-06   -0.12222E-06   536   0.375E-03
   6 F= -.10698881E+03 E0= -.10692955E+03  d E =0.773229E-02
 curvature:  23.17 expect dE= 0.946E+00 dE for cont linesearch  0.949E-01
 ZBRENT: bracketing found
 ZBRENT: interpolating
 opt :   5.9147  next Energy=  -107.027807 (dE=-0.313E-01)
 bond charge predicted
       N       E                     dE             d eps       ncg     rms          rms(c)
DAV:   1    -0.106957834199E+03    0.30978E-01   -0.70840E+01   960   0.195E+01    0.135E+00
DAV:   2    -0.107110342005E+03   -0.15251E+00   -0.10774E+00  1024   0.355E+00    0.236E+00
DAV:   3    -0.108532296990E+03   -0.14220E+01   -0.44286E+00  1264   0.808E+00    0.162E+01
DAV:   4    -0.107173578174E+03    0.13587E+01   -0.67997E+00  1232   0.560E+00    0.356E+00
DAV:   5    -0.107093116595E+03    0.80462E-01   -0.12140E-01  1048   0.130E+00    0.301E+00
DAV:   6    -0.107091050308E+03    0.20663E-02   -0.43088E-02  1120   0.100E+00    0.272E+00
DAV:   7    -0.107100825573E+03   -0.97753E-02   -0.18227E-01  1416   0.136E+00    0.404E+00
DAV:   8    -0.107081607556E+03    0.19218E-01   -0.73743E-03  1008   0.298E-01    0.334E+00
DAV:   9    -0.107074876578E+03    0.67310E-02   -0.25534E-01  1416   0.188E+00    0.261E+00
DAV:  10    -0.107038805899E+03    0.36071E-01   -0.79719E-02  1096   0.901E-01    0.164E+00
DAV:  11    -0.107027506751E+03    0.11299E-01   -0.60449E-02  1176   0.841E-01    0.998E-01
DAV:  12    -0.107029882485E+03   -0.23757E-02   -0.10899E-02  1048   0.264E-01    0.122E+00
DAV:  13    -0.107026246118E+03    0.36364E-02   -0.72796E-03  1064   0.244E-01    0.542E-01
DAV:  14    -0.107025440672E+03    0.80545E-03   -0.11610E-03  1056   0.115E-01    0.358E-01
DAV:  15    -0.107025606870E+03   -0.16620E-03   -0.72907E-04  1104   0.881E-02    0.412E-01
DAV:  16    -0.107025696996E+03   -0.90126E-04   -0.37752E-04  1056   0.478E-02    0.453E-01
DAV:  17    -0.107025471311E+03    0.22569E-03   -0.34245E-04  1048   0.440E-02    0.428E-01
DAV:  18    -0.107025044790E+03    0.42652E-03   -0.30309E-04  1104   0.552E-02    0.328E-01
DAV:  19    -0.107024792609E+03    0.25218E-03   -0.13282E-04  1048   0.338E-02    0.259E-01
DAV:  20    -0.107024520615E+03    0.27199E-03   -0.20882E-04  1104   0.472E-02    0.176E-01
DAV:  21    -0.107024346608E+03    0.17401E-03   -0.30507E-04  1136   0.588E-02    0.139E-01
DAV:  22    -0.107024312804E+03    0.33804E-04   -0.86872E-05  1048   0.287E-02    0.159E-01
DAV:  23    -0.107024300559E+03    0.12245E-04   -0.17095E-05   960   0.136E-02    0.169E-01
DAV:  24    -0.107024283398E+03    0.17161E-04   -0.47071E-06   656   0.733E-03    0.157E-01
DAV:  25    -0.107024263742E+03    0.19656E-04   -0.11643E-05   904   0.119E-02    0.130E-01
DAV:  26    -0.107024246921E+03    0.16821E-04   -0.11196E-05   960   0.122E-02    0.106E-01
DAV:  27    -0.107024244017E+03    0.29041E-05   -0.16551E-06   576   0.453E-03    0.101E-01
DAV:  28    -0.107024241631E+03    0.23866E-05   -0.10406E-06   528   0.360E-03    0.961E-02
DAV:  29    -0.107024235847E+03    0.57835E-05   -0.63170E-06   712   0.977E-03    0.864E-02
DAV:  30    -0.107024230948E+03    0.48989E-05   -0.15405E-05   968   0.154E-02    0.715E-02
DAV:  31    -0.107024229558E+03    0.13906E-05   -0.35143E-06   696   0.726E-03    0.617E-02
DAV:  32    -0.107024238653E+03   -0.90953E-05   -0.14821E-05   952   0.168E-02    0.330E-02
DAV:  33    -0.107024244731E+03   -0.60783E-05   -0.59495E-06   848   0.980E-03    0.257E-02
DAV:  34    -0.107024246654E+03   -0.19230E-05   -0.11334E-06   536   0.439E-03    0.225E-02
DAV:  35    -0.107024243478E+03    0.31763E-05   -0.24938E-06   544   0.728E-03    0.133E-02
DAV:  36    -0.107024242924E+03    0.55417E-06   -0.86155E-07   480   0.324E-03
   7 F= -.10702424E+03 E0= -.10696296E+03  d E =-.276978E-01
 curvature:  -0.58 expect dE=-0.491E-02 dE for cont linesearch -0.283E-04
 trial: gam= 0.54169 g(F)=  0.845E-02 g(S)=  0.000E+00 ort = 0.820E-03 (trialstep = 0.219E+01)
 search vector abs. value=  0.134E-01
 bond charge predicted
       N       E                     dE             d eps       ncg     rms          rms(c)
DAV:   1    -0.107019275170E+03    0.49683E-02   -0.17165E+01   960   0.972E+00    0.581E-01
DAV:   2    -0.107079721567E+03   -0.60446E-01   -0.33116E-01  1000   0.187E+00    0.321E+00
DAV:   3    -0.107117117221E+03   -0.37396E-01   -0.29585E-02  1120   0.518E-01    0.432E+00
DAV:   4    -0.107136742320E+03   -0.19625E-01   -0.10488E-02  1072   0.613E-01    0.529E+00
DAV:   5    -0.107114026001E+03    0.22716E-01   -0.15822E-02  1168   0.591E-01    0.484E+00
DAV:   6    -0.107105816050E+03    0.82100E-02   -0.25689E-03  1040   0.148E-01    0.460E+00
DAV:   7    -0.107080820788E+03    0.24995E-01   -0.12023E-02  1192   0.334E-01    0.379E+00
DAV:   8    -0.107069661477E+03    0.11159E-01   -0.42738E-03  1112   0.195E-01    0.336E+00
DAV:   9    -0.107150582927E+03   -0.80921E-01   -0.11307E-01  1360   0.113E+00    0.523E+00
DAV:  10    -0.107071306970E+03    0.79276E-01   -0.11248E-01  1200   0.908E-01    0.285E+00
DAV:  11    -0.107059861499E+03    0.11445E-01   -0.10323E-02  1064   0.267E-01    0.233E+00
DAV:  12    -0.107053264544E+03    0.65970E-02   -0.45106E-03  1112   0.221E-01    0.198E+00
DAV:  13    -0.107047809255E+03    0.54553E-02   -0.26461E-03  1080   0.142E-01    0.160E+00
DAV:  14    -0.107036056390E+03    0.11753E-01   -0.27238E-02  1544   0.504E-01    0.553E-01
DAV:  15    -0.107035823466E+03    0.23292E-03   -0.54442E-04  1016   0.721E-02    0.521E-01
DAV:  16    -0.107035962181E+03   -0.13872E-03   -0.19721E-04  1168   0.513E-02    0.567E-01
DAV:  17    -0.107035914954E+03    0.47227E-04   -0.18024E-04  1080   0.353E-02    0.566E-01
DAV:  18    -0.107035741492E+03    0.17346E-03   -0.46206E-04  1112   0.814E-02    0.497E-01
DAV:  19    -0.107036183096E+03   -0.44160E-03   -0.14959E-03  1040   0.126E-01    0.487E-01
DAV:  20    -0.107035372773E+03    0.81032E-03   -0.23035E-03  1064   0.146E-01    0.289E-01
DAV:  21    -0.107035342930E+03    0.29843E-04   -0.54594E-04  1080   0.643E-02    0.324E-01
DAV:  22    -0.107035317639E+03    0.25291E-04   -0.70857E-05  1016   0.216E-02    0.298E-01
DAV:  23    -0.107035277812E+03    0.39828E-04   -0.31504E-05  1080   0.168E-02    0.254E-01
DAV:  24    -0.107035316122E+03   -0.38310E-04   -0.15410E-04  1096   0.400E-02    0.256E-01
DAV:  25    -0.107035312185E+03    0.39373E-05   -0.28756E-05   984   0.152E-02    0.264E-01
DAV:  26    -0.107035308291E+03    0.38938E-05   -0.38038E-06   632   0.580E-03    0.261E-01
DAV:  27    -0.107035308989E+03   -0.69788E-06   -0.81306E-06   944   0.874E-03
   8 F= -.10703531E+03 E0= -.10697458E+03  d E =-.110661E-01
 trial-energy change:   -0.011066  1 .order   -0.015987   -0.019481   -0.012494
 step:   6.1037(harm=  6.1037)  dis= 0.05060  next Energy=  -107.051400 (dE=-0.272E-01)
 bond charge predicted
       N       E                     dE             d eps       ncg     rms          rms(c)
DAV:   1    -0.106977480338E+03    0.57828E-01   -0.54861E+01   960   0.174E+01    0.104E+00
DAV:   2    -0.107463724686E+03   -0.48624E+00   -0.18944E+00  1008   0.448E+00    0.930E+00
DAV:   3    -0.107169022707E+03    0.29470E+00   -0.47731E-01  1088   0.182E+00    0.486E+00
DAV:   4    -0.107083294141E+03    0.85729E-01   -0.64627E-02  1152   0.801E-01    0.290E+00
DAV:   5    -0.107046492275E+03    0.36802E-01   -0.19202E-01  1384   0.167E+00    0.213E+00
DAV:   6    -0.107044265031E+03    0.22272E-02   -0.53326E-02  1088   0.840E-01    0.105E+00
DAV:   7    -0.107117295009E+03   -0.73030E-01   -0.50224E-01  1360   0.204E+00    0.505E+00
DAV:   8    -0.107126140553E+03   -0.88455E-02   -0.74231E-03  1040   0.291E-01    0.520E+00
DAV:   9    -0.107153600514E+03   -0.27460E-01   -0.88723E-03  1240   0.367E-01    0.566E+00
DAV:  10    -0.107039759180E+03    0.11384E+00   -0.56373E-01  1416   0.187E+00    0.105E+00
DAV:  11    -0.107040641189E+03   -0.88201E-03   -0.36002E-02  1056   0.520E-01    0.141E+00
DAV:  12    -0.107037010204E+03    0.36310E-02   -0.49973E-03  1040   0.222E-01    0.115E+00
DAV:  13    -0.107033724528E+03    0.32857E-02   -0.12423E-03  1096   0.158E-01    0.927E-01
DAV:  14    -0.107031881671E+03    0.18429E-02   -0.16839E-03  1072   0.158E-01    0.825E-01
DAV:  15    -0.107031089676E+03    0.79199E-03   -0.75667E-04  1056   0.775E-02    0.734E-01
DAV:  16    -0.107029746592E+03    0.13431E-02   -0.12699E-03  1056   0.999E-02    0.449E-01
DAV:  17    -0.107029161444E+03    0.58515E-03   -0.10471E-03  1064   0.985E-02    0.258E-01
DAV:  18    -0.107029105453E+03    0.55991E-04   -0.47379E-04  1088   0.601E-02    0.248E-01
DAV:  19    -0.107029071641E+03    0.33812E-04   -0.14765E-04  1040   0.315E-02    0.244E-01
DAV:  20    -0.107029001965E+03    0.69676E-04   -0.70207E-05  1064   0.241E-02    0.209E-01
DAV:  21    -0.107028910540E+03    0.91425E-04   -0.69363E-05  1000   0.276E-02    0.164E-01
DAV:  22    -0.107028881918E+03    0.28621E-04   -0.10472E-05  1016   0.123E-02    0.149E-01
DAV:  23    -0.107028878474E+03    0.34442E-05   -0.13151E-06   536   0.343E-03    0.146E-01
DAV:  24    -0.107028885444E+03   -0.69704E-05   -0.48225E-06   592   0.463E-03    0.146E-01
DAV:  25    -0.107028874723E+03    0.10722E-04   -0.73142E-06   720   0.103E-02    0.122E-01
DAV:  26    -0.107028859699E+03    0.15024E-04   -0.21095E-05   664   0.138E-02    0.102E-01
DAV:  27    -0.107028854901E+03    0.47985E-05   -0.15740E-05   776   0.125E-02    0.874E-02
DAV:  28    -0.107028857298E+03   -0.23969E-05   -0.29591E-05  1000   0.184E-02    0.741E-02
DAV:  29    -0.107028856714E+03    0.58312E-06   -0.61184E-06   808   0.103E-02
   9 F= -.10702886E+03 E0= -.10696864E+03  d E =-.461379E-02
 curvature:  -4.60 expect dE=-0.173E+00 dE for cont linesearch -0.328E-02
 ZBRENT: interpolating
 opt :   4.7285  next Energy=  -107.030982 (dE=-0.674E-02)
 bond charge predicted
       N       E                     dE             d eps       ncg     rms          rms(c)
DAV:   1    -0.107030409379E+03   -0.15521E-02   -0.67726E+00   960   0.611E+00    0.436E-01
DAV:   2    -0.107061386472E+03   -0.30977E-01   -0.15153E-01  1040   0.118E+00    0.266E+00
DAV:   3    -0.107208699257E+03   -0.14731E+00   -0.11108E+00  1296   0.294E+00    0.544E+00
DAV:   4    -0.107069444158E+03    0.13926E+00   -0.18473E-01  1240   0.144E+00    0.252E+00
DAV:   5    -0.107041649577E+03    0.27795E-01   -0.42094E-02  1200   0.738E-01    0.118E+00
DAV:   6    -0.107051482505E+03   -0.98329E-02   -0.22269E-02  1136   0.509E-01    0.183E+00
DAV:   7    -0.107046367774E+03    0.51147E-02   -0.26793E-03  1104   0.287E-01    0.159E+00
DAV:   8    -0.107038710485E+03    0.76573E-02   -0.65587E-03  1056   0.265E-01    0.758E-01
DAV:   9    -0.107036864338E+03    0.18461E-02   -0.11031E-02  1160   0.298E-01    0.237E-01
DAV:  10    -0.107037740674E+03   -0.87634E-03   -0.19372E-03  1040   0.122E-01    0.477E-01
DAV:  11    -0.107037131813E+03    0.60886E-03   -0.55947E-04  1032   0.684E-02    0.287E-01
DAV:  12    -0.107036860300E+03    0.27151E-03   -0.35099E-04  1136   0.529E-02    0.141E-01
DAV:  13    -0.107036807133E+03    0.53167E-04   -0.70068E-04  1120   0.752E-02    0.136E-01
DAV:  14    -0.107036803371E+03    0.37616E-05   -0.59858E-05  1048   0.214E-02    0.129E-01
DAV:  15    -0.107036784753E+03    0.18618E-04   -0.27827E-05  1024   0.132E-02    0.113E-01
DAV:  16    -0.107036778692E+03    0.60614E-05   -0.99764E-06  1024   0.916E-03    0.106E-01
DAV:  17    -0.107036767969E+03    0.10723E-04   -0.48930E-06   640   0.692E-03    0.874E-02
DAV:  18    -0.107036755392E+03    0.12576E-04   -0.10294E-05   560   0.860E-03    0.615E-02
DAV:  19    -0.107036749603E+03    0.57898E-05   -0.60423E-06   616   0.656E-03    0.446E-02
DAV:  20    -0.107036746546E+03    0.30567E-05   -0.32937E-06   584   0.522E-03    0.313E-02
DAV:  21    -0.107036745258E+03    0.12883E-05   -0.16025E-06   608   0.406E-03    0.203E-02
DAV:  22    -0.107036745021E+03    0.23699E-06   -0.71463E-07   504   0.302E-03
  10 F= -.10703675E+03 E0= -.10697618E+03  d E =-.125021E-01
 curvature:  -2.98 expect dE=-0.828E-01 dE for cont linesearch -0.101E-03
 trial: gam= 3.19799 g(F)=  0.278E-01 g(S)=  0.000E+00 ort =-0.674E-03 (trialstep = 0.225E+00)
 search vector abs. value=  0.161E+00
 bond charge predicted
       N       E                     dE             d eps       ncg     rms          rms(c)
DAV:   1    -0.107037516075E+03   -0.77082E-03   -0.21686E+00   960   0.345E+00    0.235E-01
DAV:   2    -0.107040626321E+03   -0.31102E-02   -0.28313E-02  1008   0.556E-01    0.357E-01
DAV:   3    -0.107051609529E+03   -0.10983E-01   -0.37194E-02  1088   0.595E-01    0.196E+00
DAV:   4    -0.107044132417E+03    0.74771E-02   -0.99029E-03  1048   0.265E-01    0.119E+00
DAV:   5    -0.107043332732E+03    0.79969E-03   -0.41882E-04  1120   0.175E-01    0.114E+00
DAV:   6    -0.107043016756E+03    0.31598E-03   -0.62264E-04  1064   0.170E-01    0.104E+00
DAV:   7    -0.107045473873E+03   -0.24571E-02   -0.24747E-03  1120   0.167E-01    0.124E+00
DAV:   8    -0.107040790895E+03    0.46830E-02   -0.49049E-02  1536   0.600E-01    0.490E-01
DAV:   9    -0.107039654769E+03    0.11361E-02   -0.31628E-03  1048   0.160E-01    0.947E-02
DAV:  10    -0.107039589543E+03    0.65226E-04   -0.36191E-04  1096   0.507E-02    0.629E-02
DAV:  11    -0.107039626565E+03   -0.37022E-04   -0.24450E-04  1112   0.474E-02    0.139E-01
DAV:  12    -0.107039595348E+03    0.31218E-04   -0.55479E-05  1032   0.209E-02    0.109E-01
DAV:  13    -0.107039582032E+03    0.13316E-04   -0.23197E-05  1032   0.138E-02    0.953E-02
DAV:  14    -0.107039585309E+03   -0.32774E-05   -0.11036E-05   632   0.803E-03    0.993E-02
DAV:  15    -0.107039598899E+03   -0.13590E-04   -0.12383E-05   680   0.103E-02    0.112E-01
DAV:  16    -0.107039580576E+03    0.18323E-04   -0.12375E-05   576   0.939E-03    0.844E-02
DAV:  17    -0.107039562525E+03    0.18051E-04   -0.40777E-05   648   0.167E-02    0.363E-02
DAV:  18    -0.107039561740E+03    0.78481E-06   -0.53411E-06   600   0.623E-03
  11 F= -.10703956E+03 E0= -.10697900E+03  d E =-.281672E-02
 trial-energy change:   -0.002817  1 .order   -0.004946   -0.005770   -0.004123
 step:   0.7890(harm=  0.7890)  dis= 0.02467  next Energy=  -107.046854 (dE=-0.101E-01)
 bond charge predicted
       N       E                     dE             d eps       ncg     rms          rms(c)
DAV:   1    -0.107023645872E+03    0.15917E-01   -0.13612E+01   960   0.865E+00    0.612E-01
DAV:   2    -0.107057834976E+03   -0.34189E-01   -0.22984E-01  1024   0.149E+00    0.214E+00
DAV:   3    -0.107456871228E+03   -0.39904E+00   -0.12762E+00  1280   0.383E+00    0.890E+00
DAV:   4    -0.107108870891E+03    0.34800E+00   -0.79176E-01  1256   0.227E+00    0.412E+00
DAV:   5    -0.107085100379E+03    0.23771E-01   -0.11441E-02  1128   0.397E-01    0.367E+00
DAV:   6    -0.107062693883E+03    0.22406E-01   -0.96995E-03  1128   0.421E-01    0.278E+00
DAV:   7    -0.107068741282E+03   -0.60474E-02   -0.78645E-03  1128   0.434E-01    0.295E+00
DAV:   8    -0.107039692456E+03    0.29049E-01   -0.63099E-02  1416   0.670E-01    0.953E-01
DAV:   9    -0.107036687440E+03    0.30050E-02   -0.13272E-02  1072   0.281E-01    0.326E-01
DAV:  10    -0.107036602688E+03    0.84752E-04   -0.29678E-03  1088   0.136E-01    0.224E-01
DAV:  11    -0.107037644562E+03   -0.10419E-02   -0.33276E-03  1200   0.191E-01    0.459E-01
DAV:  12    -0.107036720420E+03    0.92414E-03   -0.73977E-03  1280   0.270E-01    0.265E-01
DAV:  13    -0.107036484000E+03    0.23642E-03   -0.57545E-04  1088   0.747E-02    0.128E-01
DAV:  14    -0.107036736492E+03   -0.25249E-03   -0.80983E-04  1216   0.878E-02    0.263E-01
DAV:  15    -0.107036544330E+03    0.19216E-03   -0.20917E-04  1096   0.430E-02    0.189E-01
DAV:  16    -0.107036492798E+03    0.51532E-04   -0.57934E-05  1048   0.234E-02    0.167E-01
DAV:  17    -0.107036452620E+03    0.40178E-04   -0.33645E-05  1088   0.175E-02    0.131E-01
DAV:  18    -0.107036423915E+03    0.28705E-04   -0.32636E-05   888   0.165E-02    0.868E-02
DAV:  19    -0.107036405117E+03    0.18798E-04   -0.24510E-05   664   0.132E-02    0.479E-02
DAV:  20    -0.107036402177E+03    0.29397E-05   -0.42998E-06   696   0.848E-03    0.381E-02
DAV:  21    -0.107036404208E+03   -0.20304E-05   -0.22575E-06   560   0.509E-03    0.424E-02
DAV:  22    -0.107036410692E+03   -0.64840E-05   -0.49765E-06   552   0.680E-03    0.553E-02
DAV:  23    -0.107036407469E+03    0.32223E-05   -0.21327E-06   520   0.379E-03    0.440E-02
DAV:  24    -0.107036401283E+03    0.61859E-05   -0.85887E-06   560   0.773E-03    0.219E-02
DAV:  25    -0.107036399638E+03    0.16455E-05   -0.49461E-06   560   0.623E-03    0.841E-03
DAV:  26    -0.107036399942E+03   -0.30373E-06   -0.24279E-07   496   0.153E-03
  12 F= -.10703640E+03 E0= -.10697606E+03  d E =0.345079E-03
 curvature:  -2.47 expect dE=-0.335E-01 dE for cont linesearch -0.253E-03
 ZBRENT: extrapolating
 opt :   0.9495  next Energy=  -107.036726 (dE= 0.195E-04)
 bond charge predicted
       N       E                     dE             d eps       ncg     rms          rms(c)
DAV:   1    -0.107031541239E+03    0.48584E-02   -0.11025E+00   960   0.246E+00    0.174E-01
DAV:   2    -0.107035802698E+03   -0.42615E-02   -0.25348E-02  1040   0.456E-01    0.932E-01
DAV:   3    -0.107069457463E+03   -0.33655E-01   -0.17171E-01  1328   0.120E+00    0.306E+00
DAV:   4    -0.107037331168E+03    0.32126E-01   -0.68155E-02  1248   0.739E-01    0.110E+00
DAV:   5    -0.107033293893E+03    0.40373E-02   -0.63650E-03  1168   0.256E-01    0.547E-01
DAV:   6    -0.107035094562E+03   -0.18007E-02   -0.29921E-03  1144   0.199E-01    0.853E-01
DAV:   7    -0.107035891681E+03   -0.79712E-03   -0.54317E-04  1176   0.927E-02    0.956E-01
DAV:   8    -0.107033105486E+03    0.27862E-02   -0.46626E-03  1384   0.199E-01    0.430E-01
DAV:   9    -0.107032575513E+03    0.52997E-03   -0.33914E-03  1168   0.147E-01    0.822E-02
DAV:  10    -0.107032699965E+03   -0.12445E-03   -0.34158E-04  1072   0.481E-02    0.149E-01
DAV:  11    -0.107032589530E+03    0.11044E-03   -0.30205E-04  1168   0.496E-02    0.376E-02
DAV:  12    -0.107032591607E+03   -0.20766E-05   -0.12961E-04  1056   0.309E-02    0.543E-02
DAV:  13    -0.107032610522E+03   -0.18915E-04   -0.31024E-05  1016   0.150E-02    0.878E-02
DAV:  14    -0.107032595996E+03    0.14527E-04   -0.12648E-05   584   0.993E-03    0.674E-02
DAV:  15    -0.107032580882E+03    0.15113E-04   -0.26772E-05   760   0.153E-02    0.291E-02
DAV:  16    -0.107032579855E+03    0.10271E-05   -0.44533E-06   744   0.578E-03    0.191E-02
DAV:  17    -0.107032580079E+03   -0.22369E-06   -0.43653E-07   504   0.219E-03
  13 F= -.10703258E+03 E0= -.10697230E+03  d E =0.416494E-02
 curvature:  -3.17 expect dE=-0.418E-01 dE for cont linesearch -0.584E-04
 trial: gam= 0.13391 g(F)=  0.132E-01 g(S)=  0.000E+00 ort =-0.172E-02 (trialstep = 0.370E+00)
 search vector abs. value=  0.156E-01
 bond charge predicted
       N       E                     dE             d eps       ncg     rms          rms(c)
DAV:   1    -0.107036981024E+03   -0.44012E-02   -0.56576E-01   960   0.177E+00    0.105E-01
DAV:   2    -0.107042976652E+03   -0.59956E-02   -0.28932E-02  1040   0.451E-01    0.122E+00
DAV:   3    -0.107041975577E+03    0.10011E-02   -0.77420E-02  1184   0.696E-01    0.105E+00
DAV:   4    -0.107037866619E+03    0.41090E-02   -0.17705E-02  1192   0.361E-01    0.269E-01
DAV:   5    -0.107037668570E+03    0.19805E-03   -0.27644E-04  1136   0.882E-02    0.112E-01
DAV:   6    -0.107038137473E+03   -0.46890E-03   -0.25550E-03  1256   0.163E-01    0.392E-01
DAV:   7    -0.107038695944E+03   -0.55847E-03   -0.76535E-04  1208   0.114E-01    0.516E-01
DAV:   8    -0.107037566138E+03    0.11298E-02   -0.46473E-03  1288   0.197E-01    0.766E-02
DAV:   9    -0.107037591199E+03   -0.25060E-04   -0.28298E-04  1096   0.618E-02    0.890E-02
DAV:  10    -0.107037561562E+03    0.29637E-04   -0.16395E-04  1104   0.364E-02    0.203E-02
DAV:  11    -0.107037562504E+03   -0.94212E-06   -0.30899E-05   816   0.153E-02    0.342E-02
DAV:  12    -0.107037577533E+03   -0.15030E-04   -0.33592E-05   752   0.164E-02    0.723E-02
DAV:  13    -0.107037565563E+03    0.11970E-04   -0.13044E-05   712   0.966E-03    0.461E-02
DAV:  14    -0.107037557742E+03    0.78212E-05   -0.25944E-05   624   0.135E-02    0.138E-02
DAV:  15    -0.107037558040E+03   -0.29770E-06   -0.56037E-06   608   0.630E-03
  14 F= -.10703756E+03 E0= -.10697727E+03  d E =-.497796E-02
 ZBRENT: can't locate minimum, use default step
 trial-energy change:   -0.004978  1 .order   -0.004610   -0.004783   -0.004436
 step:   1.4801(harm=  5.1040)  dis= 0.01138  next Energy=  -107.065567 (dE=-0.330E-01)
 bond charge predicted
       N       E                     dE             d eps       ncg     rms          rms(c)
DAV:   1    -0.107043159540E+03   -0.56018E-02   -0.50925E+00   960   0.531E+00    0.294E-01
DAV:   2    -0.107054571945E+03   -0.11412E-01   -0.83963E-02  1040   0.862E-01    0.132E+00
DAV:   3    -0.107097911871E+03   -0.43340E-01   -0.33433E-01  1296   0.146E+00    0.348E+00
DAV:   4    -0.107053587758E+03    0.44324E-01   -0.12072E-01  1288   0.101E+00    0.107E+00
DAV:   5    -0.107049306438E+03    0.42813E-02   -0.79103E-03  1160   0.369E-01    0.385E-01
DAV:   6    -0.107053723500E+03   -0.44171E-02   -0.20904E-02  1192   0.455E-01    0.117E+00
DAV:   7    -0.107054878755E+03   -0.11553E-02   -0.22841E-03  1112   0.259E-01    0.126E+00
DAV:   8    -0.107049090315E+03    0.57884E-02   -0.30980E-02  1312   0.534E-01    0.298E-01
DAV:   9    -0.107049085237E+03    0.50787E-05   -0.52000E-03  1160   0.283E-01    0.400E-01
DAV:  10    -0.107048413613E+03    0.67162E-03   -0.26774E-03  1152   0.142E-01    0.796E-02
DAV:  11    -0.107048432403E+03   -0.18791E-04   -0.24525E-04  1048   0.415E-02    0.999E-02
DAV:  12    -0.107048519349E+03   -0.86946E-04   -0.20793E-04  1104   0.465E-02    0.193E-01
DAV:  13    -0.107048439535E+03    0.79814E-04   -0.71147E-05  1016   0.243E-02    0.138E-01
DAV:  14    -0.107048377613E+03    0.61921E-04   -0.11871E-04  1096   0.293E-02    0.648E-02
DAV:  15    -0.107048367110E+03    0.10503E-04   -0.36687E-05  1064   0.155E-02    0.301E-02
DAV:  16    -0.107048366879E+03    0.23097E-06   -0.48040E-06   600   0.617E-03
  15 F= -.10704837E+03 E0= -.10698799E+03  d E =-.157868E-01
 curvature:  -1.27 expect dE=-0.992E-02 dE for cont linesearch -0.173E-02
 ZBRENT: increasing intervall
 opt :   3.7003  next Energy=  -107.042151 (dE=-0.957E-02)
 bond charge predicted
       N       E                     dE             d eps       ncg     rms          rms(c)
DAV:   1    -0.107011324797E+03    0.37042E-01   -0.20376E+01   960   0.106E+01    0.597E-01
DAV:   2    -0.107063907439E+03   -0.52583E-01   -0.32037E-01  1024   0.178E+00    0.284E+00
DAV:   3    -0.107207456217E+03   -0.14355E+00   -0.68794E-01  1272   0.293E+00    0.608E+00
DAV:   4    -0.107061814470E+03    0.14564E+00   -0.26267E-01  1176   0.151E+00    0.249E+00
DAV:   5    -0.107037089147E+03    0.24725E-01   -0.34507E-02  1216   0.744E-01    0.110E+00
DAV:   6    -0.107058061812E+03   -0.20973E-01   -0.52710E-02  1200   0.863E-01    0.242E+00
DAV:   7    -0.107076691701E+03   -0.18630E-01   -0.22411E-02  1184   0.551E-01    0.309E+00
DAV:   8    -0.107033524377E+03    0.43167E-01   -0.14520E-01  1400   0.121E+00    0.443E-01
DAV:   9    -0.107033289505E+03    0.23487E-03   -0.91592E-03  1080   0.328E-01    0.453E-01
DAV:  10    -0.107032916311E+03    0.37319E-03   -0.17217E-03  1048   0.104E-01    0.353E-01
DAV:  11    -0.107032751340E+03    0.16497E-03   -0.47265E-04  1088   0.546E-02    0.324E-01
DAV:  12    -0.107033421888E+03   -0.67055E-03   -0.75199E-04  1080   0.758E-02    0.525E-01
DAV:  13    -0.107032530405E+03    0.89148E-03   -0.12656E-03  1144   0.110E-01    0.308E-01
DAV:  14    -0.107032301584E+03    0.22882E-03   -0.31730E-04  1048   0.501E-02    0.162E-01
DAV:  15    -0.107032317582E+03   -0.15998E-04   -0.30468E-05  1032   0.168E-02    0.167E-01
DAV:  16    -0.107032367962E+03   -0.50380E-04   -0.21773E-05   656   0.138E-02    0.200E-01
DAV:  17    -0.107032384991E+03   -0.17029E-04   -0.82827E-06   704   0.810E-03    0.209E-01
DAV:  18    -0.107032319855E+03    0.65136E-04   -0.28810E-05   720   0.160E-02    0.162E-01
DAV:  19    -0.107032233992E+03    0.85863E-04   -0.13194E-04   888   0.331E-02    0.577E-02
DAV:  20    -0.107032226384E+03    0.76075E-05   -0.26924E-05  1040   0.152E-02    0.184E-02
DAV:  21    -0.107032227662E+03   -0.12779E-05   -0.10831E-06   544   0.323E-03    0.188E-02
DAV:  22    -0.107032228108E+03   -0.44520E-06   -0.17815E-07   504   0.132E-03
  16 F= -.10703223E+03 E0= -.10697191E+03  d E =0.351971E-03
 curvature:   4.59 expect dE= 0.274E+00 dE for cont linesearch  0.626E-01
 ZBRENT: bracketing found
 ZBRENT: interpolating
 opt :   2.0122  next Energy=  -107.049589 (dE=-0.170E-01)
 bond charge predicted
       N       E                     dE             d eps       ncg     rms          rms(c)
DAV:   1    -0.107037211940E+03   -0.49843E-02   -0.11775E+01   960   0.808E+00    0.474E-01
DAV:   2    -0.107071531580E+03   -0.34320E-01   -0.20022E-01  1056   0.139E+00    0.241E+00
DAV:   3    -0.107175453196E+03   -0.10392E+00   -0.67435E-01  1304   0.258E+00    0.496E+00
DAV:   4    -0.107056054577E+03    0.11940E+00   -0.35262E-01  1384   0.189E+00    0.927E-01
DAV:   5    -0.107052311075E+03    0.37435E-02   -0.76070E-03  1112   0.306E-01    0.983E-01
DAV:   6    -0.107056017773E+03   -0.37067E-02   -0.76809E-03  1192   0.295E-01    0.141E+00
DAV:   7    -0.107064332348E+03   -0.83146E-02   -0.74497E-03  1184   0.617E-01    0.184E+00
DAV:   8    -0.107050008392E+03    0.14324E-01   -0.27381E-02  1200   0.564E-01    0.430E-01
DAV:   9    -0.107049690255E+03    0.31814E-03   -0.49241E-03  1032   0.261E-01    0.255E-01
DAV:  10    -0.107049656350E+03    0.33904E-04   -0.23504E-03  1064   0.138E-01    0.214E-01
DAV:  11    -0.107049400050E+03    0.25630E-03   -0.81698E-04  1112   0.108E-01    0.108E-01
DAV:  12    -0.107049398991E+03    0.10589E-05   -0.23122E-04  1088   0.612E-02    0.112E-01
DAV:  13    -0.107049346426E+03    0.52565E-04   -0.10431E-04  1080   0.368E-02    0.104E-01
DAV:  14    -0.107049358132E+03   -0.11706E-04   -0.14323E-04  1072   0.271E-02    0.129E-01
DAV:  15    -0.107049305583E+03    0.52549E-04   -0.15700E-04  1104   0.362E-02    0.398E-02
DAV:  16    -0.107049307689E+03   -0.21057E-05   -0.15321E-05  1032   0.119E-02    0.448E-02
DAV:  17    -0.107049310476E+03   -0.27873E-05   -0.14833E-05   760   0.121E-02    0.583E-02
DAV:  18    -0.107049312593E+03   -0.21166E-05   -0.37814E-06   592   0.623E-03    0.629E-02
DAV:  19    -0.107049304884E+03    0.77087E-05   -0.69243E-06   576   0.727E-03    0.425E-02
DAV:  20    -0.107049300412E+03    0.44715E-05   -0.11487E-05   560   0.836E-03    0.151E-02
DAV:  21    -0.107049300371E+03    0.41706E-07   -0.17409E-06   552   0.327E-03
  17 F= -.10704930E+03 E0= -.10698891E+03  d E =-.167203E-01
 curvature:  -0.09 expect dE=-0.101E-02 dE for cont linesearch -0.146E-04
 trial: gam= 0.77862 g(F)=  0.113E-01 g(S)=  0.000E+00 ort =-0.159E-02 (trialstep = 0.596E+00)
 search vector abs. value=  0.183E-01
 bond charge predicted
       N       E                     dE             d eps       ncg     rms          rms(c)
DAV:   1    -0.107054439477E+03   -0.51391E-02   -0.17315E+00   960   0.304E+00    0.161E-01
DAV:   2    -0.107082480935E+03   -0.28041E-01   -0.10590E-01  1056   0.100E+00    0.248E+00
DAV:   3    -0.107058414827E+03    0.24066E-01   -0.72458E-02  1080   0.716E-01    0.466E-01
DAV:   4    -0.107057009766E+03    0.14051E-02   -0.88525E-03  1120   0.405E-01    0.322E-01
DAV:   5    -0.107056592020E+03    0.41775E-03   -0.92554E-04  1040   0.142E-01    0.234E-01
DAV:   6    -0.107056441729E+03    0.15029E-03   -0.31090E-04  1056   0.584E-02    0.170E-01
DAV:   7    -0.107060080699E+03   -0.36390E-02   -0.14484E-02  1616   0.364E-01    0.945E-01
DAV:   8    -0.107056483334E+03    0.35974E-02   -0.84582E-03  1344   0.292E-01    0.316E-01
DAV:   9    -0.107056427987E+03    0.55347E-04   -0.61254E-04  1032   0.845E-02    0.254E-01
DAV:  10    -0.107056141654E+03    0.28633E-03   -0.75394E-04  1200   0.806E-02    0.736E-02
DAV:  11    -0.107056175674E+03   -0.34020E-04   -0.80066E-05  1032   0.241E-02    0.911E-02
DAV:  12    -0.107056171809E+03    0.38654E-05   -0.19312E-05   976   0.131E-02    0.908E-02
DAV:  13    -0.107056138641E+03    0.33168E-04   -0.13999E-04  1072   0.344E-02    0.357E-02
DAV:  14    -0.107056144952E+03   -0.63113E-05   -0.38321E-05  1000   0.167E-02    0.526E-02
DAV:  15    -0.107056139982E+03    0.49701E-05   -0.12773E-05  1032   0.152E-02    0.390E-02
DAV:  16    -0.107056137341E+03    0.26407E-05   -0.36725E-06   560   0.581E-03    0.243E-02
DAV:  17    -0.107056135919E+03    0.14227E-05   -0.28136E-06   560   0.502E-03    0.125E-02
DAV:  18    -0.107056135909E+03    0.96916E-08   -0.61504E-07   496   0.244E-03
  18 F= -.10705614E+03 E0= -.10699573E+03  d E =-.683554E-02
 trial-energy change:   -0.006836  1 .order   -0.005202   -0.005992   -0.004413
 step:   2.2616(harm=  2.2616)  dis= 0.01891  next Energy=  -107.060672 (dE=-0.114E-01)
 bond charge predicted
       N       E                     dE             d eps       ncg     rms          rms(c)
DAV:   1    -0.107050099693E+03    0.60362E-02   -0.13537E+01   960   0.852E+00    0.471E-01
DAV:   2    -0.107208362417E+03   -0.15826E+00   -0.61801E-01  1048   0.254E+00    0.537E+00
DAV:   3    -0.107086522172E+03    0.12184E+00   -0.27117E-01  1024   0.151E+00    0.161E+00
DAV:   4    -0.107067674341E+03    0.18848E-01   -0.55213E-02  1096   0.100E+00    0.771E-01
DAV:   5    -0.107066215647E+03    0.14587E-02   -0.10764E-02  1056   0.384E-01    0.655E-01
DAV:   6    -0.107066408780E+03   -0.19313E-03   -0.43572E-03  1096   0.284E-01    0.548E-01
DAV:   7    -0.107082939847E+03   -0.16531E-01   -0.64149E-02  1520   0.780E-01    0.207E+00
DAV:   8    -0.107069830460E+03    0.13109E-01   -0.18459E-02  1168   0.498E-01    0.130E+00
DAV:   9    -0.107071866051E+03   -0.20356E-02   -0.45052E-03  1112   0.257E-01    0.134E+00
DAV:  10    -0.107063650540E+03    0.82155E-02   -0.32388E-02  1352   0.498E-01    0.276E-01
DAV:  11    -0.107063636788E+03    0.13752E-04   -0.11265E-03  1024   0.871E-02    0.242E-01
DAV:  12    -0.107063661474E+03   -0.24687E-04   -0.19051E-04  1112   0.359E-02    0.253E-01
DAV:  13    -0.107063684852E+03   -0.23378E-04   -0.10839E-04  1080   0.289E-02    0.269E-01
DAV:  14    -0.107063553681E+03    0.13117E-03   -0.16846E-04  1080   0.402E-02    0.213E-01
DAV:  15    -0.107063499545E+03    0.54136E-04   -0.92098E-05  1080   0.267E-02    0.171E-01
DAV:  16    -0.107063426656E+03    0.72889E-04   -0.86429E-05  1048   0.286E-02    0.977E-02
DAV:  17    -0.107063426260E+03    0.39625E-06   -0.14667E-05  1016   0.107E-02    0.877E-02
DAV:  18    -0.107063422917E+03    0.33427E-05   -0.55336E-06   592   0.676E-03    0.759E-02
DAV:  19    -0.107063420521E+03    0.23956E-05   -0.45580E-06   584   0.659E-03    0.636E-02
DAV:  20    -0.107063411171E+03    0.93500E-05   -0.20786E-05   600   0.139E-02    0.355E-02
DAV:  21    -0.107063411189E+03   -0.18015E-07   -0.51462E-06   632   0.715E-03
  19 F= -.10706341E+03 E0= -.10700314E+03  d E =-.141108E-01
 curvature:  -2.05 expect dE=-0.259E-01 dE for cont linesearch -0.150E-02
 ZBRENT: interpolating
 opt :   1.7109  next Energy=  -107.064418 (dE=-0.151E-01)
 bond charge predicted
       N       E                     dE             d eps       ncg     rms          rms(c)
DAV:   1    -0.107062188041E+03    0.12231E-02   -0.14772E+00   960   0.282E+00    0.141E-01
DAV:   2    -0.107076705082E+03   -0.14517E-01   -0.64033E-02  1056   0.776E-01    0.166E+00
DAV:   3    -0.107064829268E+03    0.11876E-01   -0.31106E-02  1072   0.531E-01    0.283E-01
DAV:   4    -0.107064806698E+03    0.22570E-04   -0.40448E-03  1096   0.367E-01    0.422E-01
DAV:   5    -0.107064072845E+03    0.73385E-03   -0.11012E-03  1088   0.145E-01    0.190E-01
DAV:   6    -0.107063882786E+03    0.19006E-03   -0.14710E-04  1064   0.458E-02    0.146E-01
DAV:   7    -0.107067868074E+03   -0.39853E-02   -0.16990E-02  1592   0.379E-01    0.948E-01
DAV:   8    -0.107063826466E+03    0.40416E-02   -0.12077E-02  1352   0.318E-01    0.183E-01
DAV:   9    -0.107063749953E+03    0.76513E-04   -0.37706E-04  1024   0.725E-02    0.103E-01
DAV:  10    -0.107063668702E+03    0.81250E-04   -0.22009E-04  1112   0.511E-02    0.492E-02
DAV:  11    -0.107063693548E+03   -0.24846E-04   -0.71871E-05  1112   0.236E-02    0.897E-02
DAV:  12    -0.107063685018E+03    0.85301E-05   -0.10877E-05   904   0.995E-03    0.842E-02
DAV:  13    -0.107063656508E+03    0.28510E-04   -0.12149E-04   984   0.330E-02    0.164E-02
DAV:  14    -0.107063656073E+03    0.43455E-06   -0.98086E-06   992   0.844E-03
  20 F= -.10706366E+03 E0= -.10700338E+03  d E =-.143557E-01
 curvature:  -1.37 expect dE=-0.148E-01 dE for cont linesearch -0.706E-04
 trial: gam= 0.47995 g(F)=  0.107E-01 g(S)=  0.000E+00 ort = 0.968E-03 (trialstep = 0.819E+00)
 search vector abs. value=  0.159E-01
 bond charge predicted
       N       E                     dE             d eps       ncg     rms          rms(c)
DAV:   1    -0.107068475978E+03   -0.48195E-02   -0.29101E+00   960   0.398E+00    0.319E-01
DAV:   2    -0.107142581633E+03   -0.74106E-01   -0.25233E-01  1048   0.152E+00    0.415E+00
DAV:   3    -0.107105068980E+03    0.37513E-01   -0.61001E-01  1192   0.233E+00    0.264E+00
DAV:   4    -0.107083038832E+03    0.22030E-01   -0.36297E-02  1136   0.656E-01    0.153E+00
DAV:   5    -0.107074447779E+03    0.85911E-02   -0.74742E-03  1112   0.427E-01    0.100E+00
DAV:   6    -0.107077588944E+03   -0.31412E-02   -0.34976E-03  1072   0.198E-01    0.130E+00
DAV:   7    -0.107074081992E+03    0.35070E-02   -0.43819E-02  1472   0.657E-01    0.490E-01
DAV:   8    -0.107071761252E+03    0.23207E-02   -0.10439E-02  1176   0.324E-01    0.351E-01
DAV:   9    -0.107071844333E+03   -0.83082E-04   -0.11815E-03  1120   0.110E-01    0.339E-01
DAV:  10    -0.107071469927E+03    0.37441E-03   -0.13672E-03  1120   0.921E-02    0.123E-01
DAV:  11    -0.107071462131E+03    0.77965E-05   -0.42282E-04  1136   0.529E-02    0.913E-02
DAV:  12    -0.107071510951E+03   -0.48820E-04   -0.10290E-04  1088   0.287E-02    0.126E-01
DAV:  13    -0.107071473507E+03    0.37444E-04   -0.62043E-05  1064   0.190E-02    0.856E-02
DAV:  14    -0.107071457991E+03    0.15516E-04   -0.52914E-04  1224   0.615E-02    0.101E-01
DAV:  15    -0.107071434966E+03    0.23025E-04   -0.55690E-05  1008   0.194E-02    0.465E-02
DAV:  16    -0.107071430059E+03    0.49067E-05   -0.19003E-05   600   0.113E-02    0.238E-02
DAV:  17    -0.107071430130E+03   -0.71363E-07   -0.28899E-06   576   0.451E-03
  21 F= -.10707143E+03 E0= -.10701132E+03  d E =-.777406E-02
 trial-energy change:   -0.007774  1 .order   -0.003821   -0.009174    0.001532
 step:   0.7812(harm=  0.7017)  dis= 0.00602  next Energy=  -107.071465 (dE=-0.781E-02)
 bond charge predicted
       N       E                     dE             d eps       ncg     rms          rms(c)
DAV:   1    -0.107071331486E+03    0.98573E-04   -0.61329E-03   960   0.183E-01    0.209E-02
DAV:   2    -0.107071652937E+03   -0.32145E-03   -0.12263E-03  1200   0.998E-02    0.283E-01
DAV:   3    -0.107071377179E+03    0.27576E-03   -0.14946E-03  1152   0.116E-01    0.104E-01
DAV:   4    -0.107071361179E+03    0.16000E-04   -0.31874E-04  1160   0.624E-02    0.718E-02
DAV:   5    -0.107071347357E+03    0.13822E-04   -0.22268E-05  1096   0.262E-02    0.558E-02
DAV:   6    -0.107071339151E+03    0.82062E-05   -0.85179E-06   640   0.979E-03    0.317E-02
DAV:   7    -0.107071341001E+03   -0.18500E-05   -0.40121E-06   560   0.588E-03    0.339E-02
DAV:   8    -0.107071345368E+03   -0.43671E-05   -0.10146E-04   768   0.281E-02    0.445E-02
DAV:   9    -0.107071336841E+03    0.85278E-05   -0.40036E-05   624   0.185E-02    0.609E-03
DAV:  10    -0.107071337418E+03   -0.57733E-06   -0.52244E-06   552   0.751E-03
  22 F= -.10707134E+03 E0= -.10701118E+03  d E =-.768134E-02
 curvature:  -0.27 expect dE=-0.107E-02 dE for cont linesearch -0.228E-04
 ZBRENT: interpolating
 opt :   0.7077  next Energy=  -107.071380 (dE=-0.772E-02)
 bond charge predicted
       N       E                     dE             d eps       ncg     rms          rms(c)
DAV:   1    -0.107071049712E+03    0.28713E-03   -0.23425E-02   960   0.357E-01    0.350E-02
DAV:   2    -0.107073776697E+03   -0.27270E-02   -0.10724E-02  1368   0.276E-01    0.825E-01
DAV:   3    -0.107071357967E+03    0.24187E-02   -0.14015E-02  1376   0.349E-01    0.287E-01
DAV:   4    -0.107071204225E+03    0.15374E-03   -0.20527E-04  1064   0.514E-02    0.179E-01
DAV:   5    -0.107071101693E+03    0.10253E-03   -0.25463E-04  1160   0.571E-02    0.951E-02
DAV:   6    -0.107071089680E+03    0.12014E-04   -0.13096E-05  1080   0.231E-02    0.775E-02
DAV:   7    -0.107071194034E+03   -0.10435E-03   -0.18855E-04  1016   0.417E-02    0.165E-01
DAV:   8    -0.107071070840E+03    0.12319E-03   -0.57448E-04  1112   0.704E-02    0.189E-02
DAV:   9    -0.107071074483E+03   -0.36432E-05   -0.84890E-06  1008   0.911E-03    0.165E-02
DAV:  10    -0.107071073458E+03    0.10246E-05   -0.26552E-06   560   0.472E-03    0.108E-02
DAV:  11    -0.107071073373E+03    0.84867E-07   -0.72199E-06   552   0.753E-03
  23 F= -.10707107E+03 E0= -.10701090E+03  d E =-.741730E-02
 curvature:  -0.50 expect dE=-0.172E-02 dE for cont linesearch -0.954E-06
 trial: gam= 0.18940 g(F)=  0.343E-02 g(S)=  0.000E+00 ort = 0.174E-03 (trialstep = 0.797E+00)
 search vector abs. value=  0.407E-02
 bond charge predicted
       N       E                     dE             d eps       ncg     rms          rms(c)
DAV:   1    -0.107075468662E+03   -0.43952E-02   -0.68513E-01   960   0.194E+00    0.116E-01
DAV:   2    -0.107086479527E+03   -0.11011E-01   -0.45705E-02  1072   0.648E-01    0.152E+00
DAV:   3    -0.107088150495E+03   -0.16710E-02   -0.15982E-03  1032   0.127E-01    0.161E+00
DAV:   4    -0.107086527416E+03    0.16231E-02   -0.19004E-04  1136   0.414E-02    0.149E+00
DAV:   5    -0.107076212631E+03    0.10315E-01   -0.32230E-02  1600   0.546E-01    0.245E-01
DAV:   6    -0.107077623606E+03   -0.14110E-02   -0.41311E-03  1128   0.204E-01    0.649E-01
DAV:   7    -0.107077619845E+03    0.37618E-05   -0.71163E-05  1040   0.261E-02    0.643E-01
DAV:   8    -0.107077575974E+03    0.43871E-04   -0.29425E-06   696   0.637E-03    0.638E-01
DAV:   9    -0.107077451355E+03    0.12462E-03   -0.33027E-05  1048   0.169E-02    0.608E-01
DAV:  10    -0.107077640168E+03   -0.18881E-03   -0.19355E-04  1136   0.726E-02    0.651E-01
DAV:  11    -0.107077279218E+03    0.36095E-03   -0.22019E-04  1080   0.522E-02    0.576E-01
DAV:  12    -0.107077366580E+03   -0.87362E-04   -0.15034E-05  1024   0.119E-02    0.594E-01
DAV:  13    -0.107076316039E+03    0.10505E-02   -0.11575E-03  1160   0.103E-01    0.283E-01
DAV:  14    -0.107076244938E+03    0.71101E-04   -0.28545E-03  1040   0.156E-01    0.134E-01
DAV:  15    -0.107076346476E+03   -0.10154E-03   -0.22568E-04  1064   0.427E-02    0.178E-01
DAV:  16    -0.107076353755E+03   -0.72799E-05   -0.69164E-05  1104   0.225E-02    0.195E-01
DAV:  17    -0.107076200058E+03    0.15370E-03   -0.25502E-04  1008   0.442E-02    0.129E-01
DAV:  18    -0.107076127562E+03    0.72496E-04   -0.24401E-04  1056   0.428E-02    0.919E-02
DAV:  19    -0.107076115767E+03    0.11795E-04   -0.54864E-05  1064   0.202E-02    0.108E-01
DAV:  20    -0.107076121496E+03   -0.57287E-05   -0.35569E-05  1032   0.179E-02    0.137E-01
DAV:  21    -0.107076120660E+03    0.83545E-06   -0.67417E-06   736   0.824E-03
  24 F= -.10707612E+03 E0= -.10701586E+03  d E =-.504729E-02
 trial-energy change:   -0.005047  1 .order   -0.002116   -0.002760   -0.001473
 step:   0.8548(harm=  1.7081)  dis= 0.00418  next Energy=  -107.076176 (dE=-0.510E-02)
 bond charge predicted
       N       E                     dE             d eps       ncg     rms          rms(c)
DAV:   1    -0.107076400316E+03   -0.27882E-03   -0.36508E-03   960   0.142E-01    0.164E-01
DAV:   2    -0.107116680224E+03   -0.40280E-01   -0.13424E-01  1512   0.103E+00    0.315E+00
DAV:   3    -0.107088938558E+03    0.27742E-01   -0.29734E-01  1624   0.159E+00    0.170E+00
DAV:   4    -0.107083084080E+03    0.58545E-02   -0.37135E-03  1072   0.180E-01    0.127E+00
DAV:   5    -0.107078120063E+03    0.49640E-02   -0.60221E-03  1408   0.277E-01    0.746E-01
DAV:   6    -0.107082931619E+03   -0.48116E-02   -0.78508E-03  1312   0.316E-01    0.124E+00
DAV:   7    -0.107083935787E+03   -0.10042E-02   -0.62331E-04  1176   0.144E-01    0.129E+00
DAV:   8    -0.107077310550E+03    0.66252E-02   -0.10002E-02  1472   0.306E-01    0.507E-01
DAV:   9    -0.107077233407E+03    0.77143E-04   -0.13469E-04  1040   0.385E-02    0.478E-01
DAV:  10    -0.107077032466E+03    0.20094E-03   -0.74328E-05  1064   0.251E-02    0.420E-01
DAV:  11    -0.107076756480E+03    0.27599E-03   -0.14789E-04  1088   0.397E-02    0.314E-01
DAV:  12    -0.107076460013E+03    0.29647E-03   -0.37240E-04  1096   0.585E-02    0.144E-01
DAV:  13    -0.107076402437E+03    0.57576E-04   -0.22673E-04  1056   0.472E-02    0.496E-02
DAV:  14    -0.107076410575E+03   -0.81378E-05   -0.16997E-05   992   0.121E-02    0.487E-02
DAV:  15    -0.107076411157E+03   -0.58219E-06   -0.81545E-07   584   0.293E-03
  25 F= -.10707641E+03 E0= -.10701624E+03  d E =-.533778E-02
 curvature:  -0.12 expect dE=-0.207E-03 dE for cont linesearch -0.908E-04
 ZBRENT: increasing intervall
 opt :   0.9712  next Energy=  -107.076598 (dE=-0.552E-02)
 bond charge predicted
       N       E                     dE             d eps       ncg     rms          rms(c)
DAV:   1    -0.107076943359E+03   -0.53278E-03   -0.14628E-02   960   0.283E-01    0.447E-02
DAV:   2    -0.107083811814E+03   -0.68685E-02   -0.21495E-02  1592   0.438E-01    0.131E+00
DAV:   3    -0.107077036407E+03    0.67754E-02   -0.25903E-02  1464   0.411E-01    0.151E-01
DAV:   4    -0.107077087523E+03   -0.51116E-04   -0.60814E-04  1152   0.104E-01    0.177E-01
DAV:   5    -0.107076963962E+03    0.12356E-03   -0.20733E-04  1144   0.647E-02    0.697E-02
DAV:   6    -0.107077003749E+03   -0.39787E-04   -0.88490E-05  1112   0.369E-02    0.112E-01
DAV:   7    -0.107076956869E+03    0.46880E-04   -0.96089E-05   872   0.311E-02    0.440E-02
DAV:   8    -0.107076977778E+03   -0.20909E-04   -0.55380E-05   920   0.258E-02    0.792E-02
DAV:   9    -0.107076953517E+03    0.24261E-04   -0.50658E-05   648   0.211E-02    0.286E-02
DAV:  10    -0.107076965465E+03   -0.11948E-04   -0.19071E-05   560   0.138E-02    0.565E-02
DAV:  11    -0.107076958660E+03    0.68044E-05   -0.41939E-06   552   0.617E-03    0.411E-02
DAV:  12    -0.107076953281E+03    0.53796E-05   -0.97677E-06   576   0.874E-03    0.168E-02
DAV:  13    -0.107076952826E+03    0.45428E-06   -0.27806E-06   584   0.477E-03
  26 F= -.10707695E+03 E0= -.10701669E+03  d E =-.587945E-02
 curvature:  -0.25 expect dE=-0.402E-03 dE for cont linesearch -0.136E-03
 ZBRENT: increasing intervall
 opt :   1.2040  next Energy=  -107.077238 (dE=-0.616E-02)
 bond charge predicted
       N       E                     dE             d eps       ncg     rms          rms(c)
DAV:   1    -0.107077852960E+03   -0.89968E-03   -0.58516E-02   960   0.567E-01    0.416E-02
DAV:   2    -0.107077972385E+03   -0.11942E-03   -0.79505E-04   992   0.951E-02    0.127E-01
DAV:   3    -0.107079424875E+03   -0.14525E-02   -0.70856E-03  1288   0.218E-01    0.620E-01
DAV:   4    -0.107078057327E+03    0.13675E-02   -0.22249E-03  1176   0.143E-01    0.229E-01
DAV:   5    -0.107077952566E+03    0.10476E-03   -0.14408E-04  1080   0.465E-02    0.145E-01
DAV:   6    -0.107078095235E+03   -0.14267E-03   -0.22839E-04  1136   0.539E-02    0.223E-01
DAV:   7    -0.107078051926E+03    0.43308E-04   -0.23768E-05  1088   0.346E-02    0.193E-01
DAV:   8    -0.107077920856E+03    0.13107E-03   -0.23595E-04  1160   0.457E-02    0.721E-02
DAV:   9    -0.107077908574E+03    0.12282E-04   -0.10035E-04  1040   0.310E-02    0.181E-02
DAV:  10    -0.107077915305E+03   -0.67313E-05   -0.13433E-05   936   0.109E-02    0.336E-02
DAV:  11    -0.107077910781E+03    0.45241E-05   -0.74413E-06   584   0.800E-03    0.136E-02
DAV:  12    -0.107077909872E+03    0.90900E-06   -0.57838E-06   568   0.708E-03
  27 F= -.10707791E+03 E0= -.10701763E+03  d E =-.683650E-02
 curvature:  -0.53 expect dE=-0.825E-03 dE for cont linesearch -0.105E-03
 ZBRENT: increasing intervall
 opt :   1.6697  next Energy=  -107.078055 (dE=-0.698E-02)
 bond charge predicted
       N       E                     dE             d eps       ncg     rms          rms(c)
DAV:   1    -0.107079028488E+03   -0.11177E-02   -0.23409E-01   960   0.113E+00    0.808E-02
DAV:   2    -0.107079668625E+03   -0.64014E-03   -0.36222E-03  1032   0.193E-01    0.352E-01
DAV:   3    -0.107085949327E+03   -0.62807E-02   -0.27055E-02  1312   0.495E-01    0.127E+00
DAV:   4    -0.107079611726E+03    0.63376E-02   -0.13385E-02  1280   0.345E-01    0.346E-01
DAV:   5    -0.107079368668E+03    0.24306E-03   -0.30842E-04  1032   0.675E-02    0.227E-01
DAV:   6    -0.107079966947E+03   -0.59828E-03   -0.12448E-03  1200   0.129E-01    0.428E-01
DAV:   7    -0.107079914288E+03    0.52659E-04   -0.71822E-05  1136   0.569E-02    0.414E-01
DAV:   8    -0.107079330056E+03    0.58423E-03   -0.76774E-04  1272   0.880E-02    0.161E-01
DAV:   9    -0.107079248591E+03    0.81465E-04   -0.37518E-04  1152   0.611E-02    0.203E-02
DAV:  10    -0.107079274296E+03   -0.25705E-04   -0.80037E-05  1088   0.257E-02    0.559E-02
DAV:  11    -0.107079263731E+03    0.10564E-04   -0.18307E-05   704   0.123E-02    0.272E-02
DAV:  12    -0.107079259263E+03    0.44682E-05   -0.24175E-05   608   0.148E-02    0.178E-02
DAV:  13    -0.107079262334E+03   -0.30714E-05   -0.89956E-06   640   0.911E-03    0.337E-02
DAV:  14    -0.107079260506E+03    0.18285E-05   -0.13920E-06   528   0.378E-03    0.266E-02
DAV:  15    -0.107079259155E+03    0.13513E-05   -0.14428E-06   552   0.347E-03    0.199E-02
DAV:  16    -0.107079258653E+03    0.50128E-06   -0.66878E-07   480   0.239E-03
  28 F= -.10707926E+03 E0= -.10701894E+03  d E =-.818528E-02
 curvature:  -0.74 expect dE=-0.167E-02 dE for cont linesearch -0.791E-05
 trial: gam= 0.67871 g(F)=  0.227E-02 g(S)=  0.000E+00 ort =-0.209E-03 (trialstep = 0.971E+00)
 search vector abs. value=  0.386E-02
 bond charge predicted
       N       E                     dE             d eps       ncg     rms          rms(c)
DAV:   1    -0.107081167700E+03   -0.19085E-02   -0.96330E-01   960   0.225E+00    0.106E-01
DAV:   2    -0.107091905683E+03   -0.10738E-01   -0.41746E-02  1040   0.638E-01    0.152E+00
DAV:   3    -0.107082683726E+03    0.92220E-02   -0.37735E-02  1056   0.516E-01    0.205E-01
DAV:   4    -0.107082802851E+03   -0.11913E-03   -0.31221E-03  1152   0.271E-01    0.282E-01
DAV:   5    -0.107082499680E+03    0.30317E-03   -0.46473E-04  1088   0.106E-01    0.213E-01
DAV:   6    -0.107082288647E+03    0.21103E-03   -0.32679E-04  1096   0.563E-02    0.116E-01
DAV:   7    -0.107082819623E+03   -0.53098E-03   -0.28082E-03  1440   0.169E-01    0.394E-01
DAV:   8    -0.107082224567E+03    0.59506E-03   -0.27620E-03  1200   0.159E-01    0.101E-01
DAV:   9    -0.107082324770E+03   -0.10020E-03   -0.88761E-04  1168   0.942E-02    0.177E-01
DAV:  10    -0.107082169006E+03    0.15576E-03   -0.62446E-04  1192   0.710E-02    0.219E-02
DAV:  11    -0.107082176576E+03   -0.75698E-05   -0.32207E-05  1080   0.146E-02    0.286E-02
DAV:  12    -0.107082179260E+03   -0.26844E-05   -0.63917E-05   704   0.218E-02    0.391E-02
DAV:  13    -0.107082172334E+03    0.69260E-05   -0.58988E-05   832   0.228E-02    0.177E-02
DAV:  14    -0.107082173648E+03   -0.13141E-05   -0.41129E-05  1032   0.193E-02    0.326E-02
DAV:  15    -0.107082169855E+03    0.37929E-05   -0.11037E-05   592   0.103E-02    0.107E-02
DAV:  16    -0.107082169564E+03    0.29153E-06   -0.93203E-07   536   0.339E-03
  29 F= -.10708217E+03 E0= -.10702173E+03  d E =-.291091E-02
 trial-energy change:   -0.002911  1 .order   -0.001004   -0.002064    0.000056
 step:   0.9672(harm=  0.9456)  dis= 0.00484  next Energy=  -107.082170 (dE=-0.291E-02)
 bond charge predicted
       N       E                     dE             d eps       ncg     rms          rms(c)
DAV:   1    -0.107082164240E+03    0.56156E-05   -0.16429E-05   960   0.965E-03    0.313E-03
DAV:   2    -0.107082182885E+03   -0.18646E-04   -0.54979E-05   816   0.233E-02    0.676E-02
DAV:   3    -0.107082167501E+03    0.15385E-04   -0.12382E-04   752   0.291E-02    0.290E-02
DAV:   4    -0.107082164403E+03    0.30973E-05   -0.66211E-06   592   0.101E-02    0.750E-03
DAV:   5    -0.107082164418E+03   -0.14523E-07   -0.48662E-07   504   0.213E-03    0.735E-03
DAV:   6    -0.107082164245E+03    0.17229E-06   -0.24659E-07   480   0.157E-03    0.409E-03
DAV:   7    -0.107082164274E+03   -0.28522E-07   -0.68944E-08   480   0.114E-03    0.405E-03
DAV:   8    -0.107082164275E+03   -0.15425E-08   -0.72925E-08   480   0.129E-03
  30 F= -.10708216E+03 E0= -.10702172E+03  d E =-.290562E-02
 curvature:  -0.25 expect dE=-0.201E-03 dE for cont linesearch -0.904E-07
 trial: gam= 0.10949 g(F)=  0.812E-03 g(S)=  0.000E+00 ort =-0.375E-04 (trialstep = 0.970E+00)
 search vector abs. value=  0.850E-03
 bond charge predicted
       N       E                     dE             d eps       ncg     rms          rms(c)
DAV:   1    -0.107082538242E+03   -0.37397E-03   -0.21681E-01   960   0.109E+00    0.832E-02
DAV:   2    -0.107087654397E+03   -0.51162E-02   -0.19741E-02  1072   0.443E-01    0.101E+00
DAV:   3    -0.107089200844E+03   -0.15464E-02   -0.11946E-03  1040   0.102E-01    0.116E+00
DAV:   4    -0.107089807039E+03   -0.60620E-03   -0.22908E-04  1192   0.517E-02    0.126E+00
DAV:   5    -0.107085991093E+03    0.38159E-02   -0.39157E-03  1416   0.206E-01    0.871E-01
DAV:   6    -0.107083378779E+03    0.26123E-02   -0.33561E-03  1360   0.219E-01    0.461E-01
DAV:   7    -0.107082885575E+03    0.49320E-03   -0.14118E-03  1096   0.112E-01    0.238E-01
DAV:   8    -0.107083240663E+03   -0.35509E-03   -0.80423E-04  1144   0.876E-02    0.393E-01
DAV:   9    -0.107082753122E+03    0.48754E-03   -0.99584E-04  1128   0.890E-02    0.141E-01
DAV:  10    -0.107082752636E+03    0.48656E-06   -0.35492E-04  1072   0.497E-02    0.916E-02
DAV:  11    -0.107082769527E+03   -0.16892E-04   -0.63386E-05  1040   0.206E-02    0.109E-01
DAV:  12    -0.107082791334E+03   -0.21807E-04   -0.68719E-05   952   0.246E-02    0.122E-01
DAV:  13    -0.107082768923E+03    0.22411E-04   -0.41037E-05  1008   0.159E-02    0.128E-01
DAV:  14    -0.107082756882E+03    0.12040E-04   -0.20137E-05   576   0.123E-02    0.142E-01
DAV:  15    -0.107082750156E+03    0.67265E-05   -0.61292E-06   552   0.847E-03    0.152E-01
DAV:  16    -0.107082753293E+03   -0.31370E-05   -0.73784E-07   576   0.281E-03    0.145E-01
DAV:  17    -0.107082757606E+03   -0.43128E-05   -0.10865E-05  1000   0.104E-02    0.112E-01
DAV:  18    -0.107082758842E+03   -0.12366E-05   -0.49288E-05  1016   0.228E-02    0.387E-02
DAV:  19    -0.107082760370E+03   -0.15279E-05   -0.21403E-05  1048   0.132E-02    0.334E-02
DAV:  20    -0.107082760314E+03    0.55967E-07   -0.19469E-06   544   0.385E-03
  31 F= -.10708276E+03 E0= -.10702227E+03  d E =-.596039E-03
 trial-energy change:   -0.000596  1 .order   -0.000353   -0.000784    0.000078
 step:   0.9371(harm=  0.8827)  dis= 0.00201  next Energy=  -107.082762 (dE=-0.597E-03)
 bond charge predicted
       N       E                     dE             d eps       ncg     rms          rms(c)
DAV:   1    -0.107082753572E+03    0.67980E-05   -0.25731E-04   960   0.378E-02    0.217E-02
DAV:   2    -0.107085518718E+03   -0.27651E-02   -0.10608E-02  1528   0.273E-01    0.826E-01
DAV:   3    -0.107082735324E+03    0.27834E-02   -0.89919E-03  1568   0.280E-01    0.697E-02
DAV:   4    -0.107082755266E+03   -0.19942E-04   -0.74843E-05  1048   0.274E-02    0.263E-02
DAV:   5    -0.107082765663E+03   -0.10396E-04   -0.34118E-05  1016   0.303E-02    0.415E-02
DAV:   6    -0.107082752148E+03    0.13515E-04   -0.16352E-05   872   0.227E-02    0.521E-03
DAV:   7    -0.107082753163E+03   -0.10149E-05   -0.66938E-06   600   0.822E-03    0.139E-02
DAV:   8    -0.107082752448E+03    0.71537E-06   -0.74368E-06   584   0.816E-03
  32 F= -.10708275E+03 E0= -.10702231E+03  d E =-.588172E-03
 curvature:  -0.29 expect dE=-0.846E-04 dE for cont linesearch -0.351E-06
 trial: gam= 0.37823 g(F)=  0.296E-03 g(S)=  0.000E+00 ort =-0.323E-04 (trialstep = 0.964E+00)
 search vector abs. value=  0.393E-03
 bond charge predicted
       N       E                     dE             d eps       ncg     rms          rms(c)
DAV:   1    -0.107082930778E+03   -0.17761E-03   -0.98545E-02   960   0.717E-01    0.668E-02
DAV:   2    -0.107083457456E+03   -0.52668E-03   -0.28977E-03  1048   0.147E-01    0.353E-01
DAV:   3    -0.107088731229E+03   -0.52738E-02   -0.33825E-02  1360   0.470E-01    0.119E+00
DAV:   4    -0.107083258621E+03    0.54726E-02   -0.13408E-02  1360   0.347E-01    0.283E-01
DAV:   5    -0.107083152982E+03    0.10564E-03   -0.19930E-04  1064   0.691E-02    0.221E-01
DAV:   6    -0.107083230269E+03   -0.77287E-04   -0.19965E-04  1104   0.590E-02    0.261E-01
DAV:   7    -0.107083192786E+03    0.37483E-04   -0.55189E-05  1080   0.361E-02    0.221E-01
DAV:   8    -0.107083099218E+03    0.93568E-04   -0.11918E-04  1096   0.427E-02    0.144E-01
DAV:   9    -0.107083033975E+03    0.65242E-04   -0.11226E-04  1112   0.347E-02    0.417E-02
DAV:  10    -0.107083040156E+03   -0.61811E-05   -0.13083E-04   960   0.318E-02    0.432E-02
DAV:  11    -0.107083039882E+03    0.27468E-06   -0.92930E-06   880   0.846E-03
  33 F= -.10708304E+03 E0= -.10702262E+03  d E =-.287434E-03
 trial-energy change:   -0.000287  1 .order   -0.000151   -0.000274   -0.000029
 step:   0.9893(harm=  1.0767)  dis= 0.00285  next Energy=  -107.083040 (dE=-0.288E-03)
 reached required accuracy - stopping structural energy minimisation
