<?xml version="1.0" encoding="ISO-8859-1"?>
<modeling>
 <generator>
  <i name="program" type="string">vasp </i>
  <i name="version" type="string">6.2.0  </i>
  <i name="subversion" type="string">18Jan21 (build Feb  1 2022 01:28:57) complex                          parallel </i>
  <i name="platform" type="string">LinuxPGI </i>
  <i name="date" type="string">2022 05 11 </i>
  <i name="time" type="string">17:37:36 </i>
 </generator>
 <incar>
  <i type="string" name="PREC">Normal</i>
  <i type="string" name="ALGO">38</i>
  <i type="int" name="ISPIN">     1</i>
  <i type="int" name="NELM">    60</i>
  <i type="int" name="NELMIN">     4</i>
  <i type="int" name="IBRION">     2</i>
  <i name="EDIFF">      0.00010000</i>
  <i name="EDIFFG">     -0.03000000</i>
  <i type="int" name="NSW">     0</i>
  <i type="int" name="ISIF">     0</i>
  <i type="int" name="ISYM">     0</i>
  <i name="SYMPREC">      0.00000100</i>
  <i name="ENCUT">    400.00000000</i>
  <i type="logical" name="LREAL"> F  </i>
  <i type="int" name="ISMEAR">     0</i>
  <i name="SIGMA">      0.05000000</i>
  <i type="logical" name="LWAVE"> F  </i>
  <i type="logical" name="LVTOT"> F  </i>
  <i type="int" name="LORBIT">    11</i>
  <i type="logical" name="LASPH"> F  </i>
  <i type="string" name="GGA">RP</i>
 </incar>
 <primitive_cell>
  <structure name="primitive_cell" >
   <crystal>
    <varray name="basis" >
     <v>       2.40252100       0.00000000       1.38709600 </v>
     <v>       0.80084000       2.26511800       1.38709600 </v>
     <v>       0.00000000       0.00000000       2.77419200 </v>
    </varray>
    <i name="volume">     15.09713501 </i>
    <varray name="rec_basis" >
     <v>       0.41622945      -0.14715931       0.00000000 </v>
     <v>       0.00000000       0.44147810       0.00000000 </v>
     <v>      -0.20811473      -0.14715940       0.36046532 </v>
    </varray>
   </crystal>
   <varray name="positions" >
    <v>       0.00000000       0.00000000       0.00000000 </v>
   </varray>
  </structure>
  <varray name="primitive_index" >
   <v type="int" >        1 </v>
  </varray>
 </primitive_cell>
 <kpoints>
  <generation param="Gamma">
   <v type="int" name="divisions">       8        8        8 </v>
   <v name="usershift">      0.00000000       0.00000000       0.00000000 </v>
   <v name="genvec1">      0.12500000      -0.00000000       0.00000000 </v>
   <v name="genvec2">      0.00000000       0.12500000       0.00000000 </v>
   <v name="genvec3">      0.00000000       0.00000000       0.12500000 </v>
   <v name="shift">      0.00000000       0.00000000       0.00000000 </v>
  </generation>
  <varray name="kpointlist" >
   <v>       0.00000000       0.00000000       0.00000000 </v>
   <v>       0.12500000       0.00000000       0.00000000 </v>
   <v>       0.00000000       0.12500000       0.00000000 </v>
   <v>       0.00000000       0.00000000       0.12500000 </v>
   <v>       0.12500000       0.12500000       0.12500000 </v>
   <v>       0.25000000       0.00000000       0.00000000 </v>
   <v>       0.00000000       0.25000000       0.00000000 </v>
   <v>       0.00000000       0.00000000       0.25000000 </v>
   <v>       0.25000000       0.25000000       0.25000000 </v>
   <v>       0.37500000       0.00000000       0.00000000 </v>
   <v>       0.00000000       0.37500000       0.00000000 </v>
   <v>       0.00000000       0.00000000       0.37500000 </v>
   <v>       0.37500000       0.37500000       0.37500000 </v>
   <v>       0.50000000       0.00000000       0.00000000 </v>
   <v>       0.00000000       0.50000000       0.00000000 </v>
   <v>       0.00000000       0.00000000       0.50000000 </v>
   <v>       0.50000000       0.50000000       0.50000000 </v>
   <v>       0.12500000       0.12500000       0.00000000 </v>
   <v>       0.00000000       0.12500000       0.12500000 </v>
   <v>       0.12500000       0.00000000       0.12500000 </v>
   <v>       0.25000000       0.12500000       0.00000000 </v>
   <v>       0.00000000       0.25000000       0.12500000 </v>
   <v>       0.12500000       0.00000000       0.25000000 </v>
   <v>       0.12500000       0.12500000      -0.12500000 </v>
   <v>       0.25000000       0.12500000       0.25000000 </v>
   <v>       0.12500000       0.25000000       0.00000000 </v>
   <v>       0.12500000      -0.12500000      -0.12500000 </v>
   <v>       0.25000000       0.25000000       0.12500000 </v>
   <v>       0.00000000       0.12500000       0.25000000 </v>
   <v>      -0.12500000       0.12500000      -0.12500000 </v>
   <v>       0.12500000       0.25000000       0.25000000 </v>
   <v>       0.25000000       0.00000000       0.12500000 </v>
   <v>       0.37500000       0.12500000       0.00000000 </v>
   <v>       0.00000000       0.37500000       0.12500000 </v>
   <v>       0.12500000       0.00000000       0.37500000 </v>
   <v>       0.12500000       0.12500000      -0.25000000 </v>
   <v>       0.37500000       0.25000000       0.37500000 </v>
   <v>       0.12500000       0.37500000       0.00000000 </v>
   <v>       0.25000000      -0.12500000      -0.12500000 </v>
   <v>       0.37500000       0.37500000       0.25000000 </v>
   <v>       0.00000000       0.12500000       0.37500000 </v>
   <v>      -0.12500000       0.25000000      -0.12500000 </v>
   <v>       0.25000000       0.37500000       0.37500000 </v>
   <v>       0.37500000       0.00000000       0.12500000 </v>
   <v>       0.50000000       0.12500000       0.00000000 </v>
   <v>       0.00000000       0.50000000       0.12500000 </v>
   <v>       0.12500000       0.00000000       0.50000000 </v>
   <v>       0.12500000       0.12500000      -0.37500000 </v>
   <v>       0.50000000       0.37500000       0.50000000 </v>
   <v>       0.12500000       0.50000000       0.00000000 </v>
   <v>       0.37500000      -0.12500000      -0.12500000 </v>
   <v>       0.50000000       0.50000000       0.37500000 </v>
   <v>       0.00000000       0.12500000       0.50000000 </v>
   <v>      -0.12500000       0.37500000      -0.12500000 </v>
   <v>       0.37500000       0.50000000       0.50000000 </v>
   <v>       0.50000000       0.00000000       0.12500000 </v>
   <v>      -0.37500000       0.12500000       0.00000000 </v>
   <v>       0.00000000      -0.37500000       0.12500000 </v>
   <v>       0.12500000       0.00000000      -0.37500000 </v>
   <v>       0.12500000       0.12500000       0.50000000 </v>
   <v>      -0.37500000       0.50000000      -0.37500000 </v>
   <v>       0.12500000      -0.37500000       0.00000000 </v>
   <v>       0.50000000      -0.12500000      -0.12500000 </v>
   <v>      -0.37500000      -0.37500000       0.50000000 </v>
   <v>       0.00000000       0.12500000      -0.37500000 </v>
   <v>      -0.12500000       0.50000000      -0.12500000 </v>
   <v>       0.50000000      -0.37500000      -0.37500000 </v>
   <v>      -0.37500000       0.00000000       0.12500000 </v>
   <v>      -0.25000000       0.12500000       0.00000000 </v>
   <v>       0.00000000      -0.25000000       0.12500000 </v>
   <v>       0.12500000       0.00000000      -0.25000000 </v>
   <v>       0.12500000       0.12500000       0.37500000 </v>
   <v>      -0.25000000      -0.37500000      -0.25000000 </v>
   <v>       0.12500000      -0.25000000       0.00000000 </v>
   <v>      -0.37500000      -0.12500000      -0.12500000 </v>
   <v>      -0.25000000      -0.25000000      -0.37500000 </v>
   <v>       0.00000000       0.12500000      -0.25000000 </v>
   <v>      -0.12500000      -0.37500000      -0.12500000 </v>
   <v>      -0.37500000      -0.25000000      -0.25000000 </v>
   <v>      -0.25000000       0.00000000       0.12500000 </v>
   <v>      -0.12500000       0.12500000       0.00000000 </v>
   <v>       0.00000000      -0.12500000       0.12500000 </v>
   <v>       0.12500000       0.00000000      -0.12500000 </v>
   <v>       0.12500000       0.12500000       0.25000000 </v>
   <v>      -0.12500000      -0.25000000      -0.12500000 </v>
   <v>      -0.25000000      -0.12500000      -0.12500000 </v>
   <v>       0.25000000       0.25000000       0.00000000 </v>
   <v>       0.00000000       0.25000000       0.25000000 </v>
   <v>       0.25000000       0.00000000       0.25000000 </v>
   <v>       0.37500000       0.25000000       0.00000000 </v>
   <v>       0.00000000       0.37500000       0.25000000 </v>
   <v>       0.25000000       0.00000000       0.37500000 </v>
   <v>       0.25000000       0.25000000      -0.12500000 </v>
   <v>       0.37500000       0.12500000       0.37500000 </v>
   <v>       0.25000000       0.37500000       0.00000000 </v>
   <v>       0.12500000      -0.25000000      -0.25000000 </v>
   <v>       0.37500000       0.37500000       0.12500000 </v>
   <v>       0.00000000       0.25000000       0.37500000 </v>
   <v>      -0.25000000       0.12500000      -0.25000000 </v>
   <v>       0.12500000       0.37500000       0.37500000 </v>
   <v>       0.37500000       0.00000000       0.25000000 </v>
   <v>       0.50000000       0.25000000       0.00000000 </v>
   <v>       0.00000000       0.50000000       0.25000000 </v>
   <v>       0.25000000       0.00000000       0.50000000 </v>
   <v>       0.25000000       0.25000000      -0.25000000 </v>
   <v>       0.50000000       0.25000000       0.50000000 </v>
   <v>       0.25000000       0.50000000       0.00000000 </v>
   <v>       0.25000000      -0.25000000      -0.25000000 </v>
   <v>       0.50000000       0.50000000       0.25000000 </v>
   <v>       0.00000000       0.25000000       0.50000000 </v>
   <v>      -0.25000000       0.25000000      -0.25000000 </v>
   <v>       0.25000000       0.50000000       0.50000000 </v>
   <v>       0.50000000       0.00000000       0.25000000 </v>
   <v>      -0.37500000       0.25000000       0.00000000 </v>
   <v>       0.00000000      -0.37500000       0.25000000 </v>
   <v>       0.25000000       0.00000000      -0.37500000 </v>
   <v>       0.25000000       0.25000000      -0.37500000 </v>
   <v>      -0.37500000       0.37500000      -0.37500000 </v>
   <v>       0.25000000      -0.37500000       0.00000000 </v>
   <v>       0.37500000      -0.25000000      -0.25000000 </v>
   <v>      -0.37500000      -0.37500000       0.37500000 </v>
   <v>       0.00000000       0.25000000      -0.37500000 </v>
   <v>      -0.25000000       0.37500000      -0.25000000 </v>
   <v>       0.37500000      -0.37500000      -0.37500000 </v>
   <v>      -0.37500000       0.00000000       0.25000000 </v>
   <v>      -0.25000000       0.25000000       0.00000000 </v>
   <v>       0.00000000      -0.25000000       0.25000000 </v>
   <v>       0.25000000       0.00000000      -0.25000000 </v>
   <v>       0.25000000       0.25000000       0.50000000 </v>
   <v>      -0.25000000       0.50000000      -0.25000000 </v>
   <v>       0.50000000      -0.25000000      -0.25000000 </v>
   <v>       0.37500000       0.37500000       0.00000000 </v>
   <v>       0.00000000       0.37500000       0.37500000 </v>
   <v>       0.37500000       0.00000000       0.37500000 </v>
   <v>       0.50000000       0.37500000       0.00000000 </v>
   <v>       0.00000000       0.50000000       0.37500000 </v>
   <v>       0.37500000       0.00000000       0.50000000 </v>
   <v>       0.37500000       0.37500000      -0.12500000 </v>
   <v>       0.50000000       0.12500000       0.50000000 </v>
   <v>       0.37500000       0.50000000       0.00000000 </v>
   <v>       0.12500000      -0.37500000      -0.37500000 </v>
   <v>       0.50000000       0.50000000       0.12500000 </v>
   <v>       0.00000000       0.37500000       0.50000000 </v>
   <v>      -0.37500000       0.12500000      -0.37500000 </v>
   <v>       0.12500000       0.50000000       0.50000000 </v>
   <v>       0.50000000       0.00000000       0.37500000 </v>
   <v>      -0.37500000       0.37500000       0.00000000 </v>
   <v>       0.00000000      -0.37500000       0.37500000 </v>
   <v>       0.37500000       0.00000000      -0.37500000 </v>
   <v>       0.37500000       0.37500000      -0.25000000 </v>
   <v>      -0.37500000       0.25000000      -0.37500000 </v>
   <v>       0.25000000      -0.37500000      -0.37500000 </v>
   <v>       0.50000000       0.50000000       0.00000000 </v>
   <v>       0.00000000       0.50000000       0.50000000 </v>
   <v>       0.50000000       0.00000000       0.50000000 </v>
   <v>       0.37500000       0.25000000       0.12500000 </v>
   <v>       0.12500000       0.37500000       0.25000000 </v>
   <v>       0.25000000       0.12500000       0.37500000 </v>
   <v>       0.25000000       0.12500000      -0.12500000 </v>
   <v>       0.37500000       0.12500000       0.25000000 </v>
   <v>       0.12500000      -0.25000000      -0.12500000 </v>
   <v>       0.12500000       0.25000000      -0.12500000 </v>
   <v>       0.12500000      -0.12500000      -0.25000000 </v>
   <v>       0.25000000       0.37500000       0.12500000 </v>
   <v>      -0.12500000       0.12500000      -0.25000000 </v>
   <v>      -0.25000000       0.12500000      -0.12500000 </v>
   <v>       0.12500000       0.25000000       0.37500000 </v>
   <v>       0.50000000       0.25000000       0.12500000 </v>
   <v>       0.12500000       0.50000000       0.25000000 </v>
   <v>       0.25000000       0.12500000       0.50000000 </v>
   <v>       0.25000000       0.12500000      -0.25000000 </v>
   <v>       0.50000000       0.25000000       0.37500000 </v>
   <v>       0.12500000      -0.37500000      -0.12500000 </v>
   <v>       0.12500000       0.37500000      -0.12500000 </v>
   <v>       0.25000000      -0.12500000      -0.25000000 </v>
   <v>      -0.37500000      -0.25000000       0.50000000 </v>
   <v>       0.37500000       0.50000000       0.25000000 </v>
   <v>      -0.12500000       0.12500000      -0.37500000 </v>
   <v>      -0.25000000       0.25000000       0.12500000 </v>
   <v>      -0.12500000       0.12500000       0.37500000 </v>
   <v>      -0.25000000       0.25000000      -0.12500000 </v>
   <v>       0.50000000      -0.37500000      -0.25000000 </v>
   <v>       0.25000000       0.37500000       0.50000000 </v>
   <v>      -0.37500000      -0.12500000       0.12500000 </v>
   <v>       0.12500000      -0.25000000       0.25000000 </v>
   <v>       0.37500000      -0.12500000       0.12500000 </v>
   <v>      -0.12500000      -0.25000000       0.25000000 </v>
   <v>      -0.25000000       0.50000000      -0.37500000 </v>
   <v>       0.50000000      -0.12500000      -0.25000000 </v>
   <v>      -0.25000000       0.50000000      -0.12500000 </v>
   <v>      -0.12500000      -0.25000000       0.50000000 </v>
   <v>      -0.37500000       0.25000000       0.12500000 </v>
   <v>       0.12500000      -0.37500000       0.25000000 </v>
   <v>       0.25000000       0.12500000      -0.37500000 </v>
   <v>      -0.37500000       0.37500000       0.50000000 </v>
   <v>       0.12500000       0.50000000      -0.12500000 </v>
   <v>       0.37500000      -0.12500000      -0.25000000 </v>
   <v>       0.50000000      -0.37500000       0.37500000 </v>
   <v>      -0.12500000       0.12500000       0.50000000 </v>
   <v>      -0.25000000       0.37500000      -0.12500000 </v>
   <v>       0.37500000       0.50000000      -0.37500000 </v>
   <v>       0.50000000      -0.12500000       0.12500000 </v>
   <v>      -0.12500000      -0.25000000       0.37500000 </v>
   <v>       0.50000000       0.37500000       0.12500000 </v>
   <v>       0.12500000       0.50000000       0.37500000 </v>
   <v>       0.37500000       0.12500000       0.50000000 </v>
   <v>       0.37500000       0.25000000      -0.12500000 </v>
   <v>       0.50000000       0.12500000       0.37500000 </v>
   <v>       0.12500000      -0.37500000      -0.25000000 </v>
   <v>       0.25000000       0.37500000      -0.12500000 </v>
   <v>       0.12500000      -0.25000000      -0.37500000 </v>
   <v>       0.37500000       0.50000000       0.12500000 </v>
   <v>      -0.25000000       0.12500000      -0.37500000 </v>
   <v>      -0.37500000       0.12500000      -0.25000000 </v>
   <v>       0.12500000       0.37500000       0.50000000 </v>
   <v>      -0.37500000       0.37500000       0.12500000 </v>
   <v>       0.12500000      -0.37500000       0.37500000 </v>
   <v>       0.37500000       0.12500000      -0.37500000 </v>
   <v>       0.37500000       0.25000000      -0.25000000 </v>
   <v>      -0.37500000       0.25000000       0.50000000 </v>
   <v>       0.12500000       0.50000000      -0.25000000 </v>
   <v>       0.25000000       0.50000000      -0.12500000 </v>
   <v>       0.25000000      -0.25000000      -0.37500000 </v>
   <v>       0.50000000      -0.25000000       0.37500000 </v>
   <v>       0.50000000      -0.37500000       0.25000000 </v>
   <v>      -0.25000000       0.12500000       0.50000000 </v>
   <v>      -0.25000000       0.37500000       0.25000000 </v>
   <v>      -0.12500000       0.25000000       0.50000000 </v>
   <v>      -0.37500000       0.25000000      -0.25000000 </v>
   <v>       0.37500000       0.50000000      -0.25000000 </v>
   <v>       0.25000000       0.50000000      -0.37500000 </v>
   <v>       0.50000000      -0.25000000       0.12500000 </v>
   <v>       0.25000000      -0.25000000       0.37500000 </v>
   <v>       0.50000000      -0.12500000       0.25000000 </v>
   <v>      -0.25000000      -0.37500000       0.25000000 </v>
   <v>      -0.25000000       0.37500000       0.50000000 </v>
   <v>       0.37500000      -0.12500000      -0.37500000 </v>
   <v>      -0.37500000       0.37500000      -0.12500000 </v>
   <v>      -0.12500000      -0.37500000       0.37500000 </v>
   <v>      -0.25000000       0.37500000       0.12500000 </v>
   <v>       0.12500000      -0.25000000       0.37500000 </v>
   <v>       0.37500000       0.12500000      -0.25000000 </v>
   <v>       0.37500000       0.25000000      -0.37500000 </v>
   <v>      -0.25000000       0.37500000      -0.37500000 </v>
   <v>       0.12500000       0.37500000      -0.25000000 </v>
   <v>       0.37500000      -0.25000000      -0.37500000 </v>
   <v>       0.37500000      -0.37500000       0.25000000 </v>
   <v>      -0.25000000       0.12500000       0.37500000 </v>
   <v>      -0.37500000       0.37500000       0.25000000 </v>
   <v>       0.25000000       0.37500000      -0.37500000 </v>
   <v>       0.37500000      -0.25000000       0.12500000 </v>
   <v>      -0.37500000       0.50000000       0.12500000 </v>
   <v>       0.12500000      -0.37500000       0.50000000 </v>
   <v>       0.50000000       0.12500000      -0.37500000 </v>
   <v>       0.50000000       0.37500000      -0.12500000 </v>
   <v>      -0.37500000       0.12500000       0.50000000 </v>
   <v>       0.12500000       0.50000000      -0.37500000 </v>
   <v>      -0.25000000       0.50000000       0.25000000 </v>
   <v>       0.25000000      -0.25000000       0.50000000 </v>
   <v>       0.50000000       0.25000000      -0.25000000 </v>
  </varray>
  <varray name="weights" >
   <v>       0.00195313 </v>
   <v>       0.00390625 </v>
   <v>       0.00390625 </v>
   <v>       0.00390625 </v>
   <v>       0.00390625 </v>
   <v>       0.00390625 </v>
   <v>       0.00390625 </v>
   <v>       0.00390625 </v>
   <v>       0.00390625 </v>
   <v>       0.00390625 </v>
   <v>       0.00390625 </v>
   <v>       0.00390625 </v>
   <v>       0.00390625 </v>
   <v>       0.00195313 </v>
   <v>       0.00195313 </v>
   <v>       0.00195313 </v>
   <v>       0.00195313 </v>
   <v>       0.00390625 </v>
   <v>       0.00390625 </v>
   <v>       0.00390625 </v>
   <v>       0.00390625 </v>
   <v>       0.00390625 </v>
   <v>       0.00390625 </v>
   <v>       0.00390625 </v>
   <v>       0.00390625 </v>
   <v>       0.00390625 </v>
   <v>       0.00390625 </v>
   <v>       0.00390625 </v>
   <v>       0.00390625 </v>
   <v>       0.00390625 </v>
   <v>       0.00390625 </v>
   <v>       0.00390625 </v>
   <v>       0.00390625 </v>
   <v>       0.00390625 </v>
   <v>       0.00390625 </v>
   <v>       0.00390625 </v>
   <v>       0.00390625 </v>
   <v>       0.00390625 </v>
   <v>       0.00390625 </v>
   <v>       0.00390625 </v>
   <v>       0.00390625 </v>
   <v>       0.00390625 </v>
   <v>       0.00390625 </v>
   <v>       0.00390625 </v>
   <v>       0.00390625 </v>
   <v>       0.00390625 </v>
   <v>       0.00390625 </v>
   <v>       0.00390625 </v>
   <v>       0.00390625 </v>
   <v>       0.00390625 </v>
   <v>       0.00390625 </v>
   <v>       0.00390625 </v>
   <v>       0.00390625 </v>
   <v>       0.00390625 </v>
   <v>       0.00390625 </v>
   <v>       0.00390625 </v>
   <v>       0.00390625 </v>
   <v>       0.00390625 </v>
   <v>       0.00390625 </v>
   <v>       0.00390625 </v>
   <v>       0.00390625 </v>
   <v>       0.00390625 </v>
   <v>       0.00390625 </v>
   <v>       0.00390625 </v>
   <v>       0.00390625 </v>
   <v>       0.00390625 </v>
   <v>       0.00390625 </v>
   <v>       0.00390625 </v>
   <v>       0.00390625 </v>
   <v>       0.00390625 </v>
   <v>       0.00390625 </v>
   <v>       0.00390625 </v>
   <v>       0.00390625 </v>
   <v>       0.00390625 </v>
   <v>       0.00390625 </v>
   <v>       0.00390625 </v>
   <v>       0.00390625 </v>
   <v>       0.00390625 </v>
   <v>       0.00390625 </v>
   <v>       0.00390625 </v>
   <v>       0.00390625 </v>
   <v>       0.00390625 </v>
   <v>       0.00390625 </v>
   <v>       0.00390625 </v>
   <v>       0.00390625 </v>
   <v>       0.00390625 </v>
   <v>       0.00390625 </v>
   <v>       0.00390625 </v>
   <v>       0.00390625 </v>
   <v>       0.00390625 </v>
   <v>       0.00390625 </v>
   <v>       0.00390625 </v>
   <v>       0.00390625 </v>
   <v>       0.00390625 </v>
   <v>       0.00390625 </v>
   <v>       0.00390625 </v>
   <v>       0.00390625 </v>
   <v>       0.00390625 </v>
   <v>       0.00390625 </v>
   <v>       0.00390625 </v>
   <v>       0.00390625 </v>
   <v>       0.00390625 </v>
   <v>       0.00390625 </v>
   <v>       0.00390625 </v>
   <v>       0.00390625 </v>
   <v>       0.00390625 </v>
   <v>       0.00390625 </v>
   <v>       0.00390625 </v>
   <v>       0.00390625 </v>
   <v>       0.00390625 </v>
   <v>       0.00390625 </v>
   <v>       0.00390625 </v>
   <v>       0.00390625 </v>
   <v>       0.00390625 </v>
   <v>       0.00390625 </v>
   <v>       0.00390625 </v>
   <v>       0.00390625 </v>
   <v>       0.00390625 </v>
   <v>       0.00390625 </v>
   <v>       0.00390625 </v>
   <v>       0.00390625 </v>
   <v>       0.00390625 </v>
   <v>       0.00390625 </v>
   <v>       0.00390625 </v>
   <v>       0.00390625 </v>
   <v>       0.00390625 </v>
   <v>       0.00390625 </v>
   <v>       0.00390625 </v>
   <v>       0.00390625 </v>
   <v>       0.00390625 </v>
   <v>       0.00390625 </v>
   <v>       0.00390625 </v>
   <v>       0.00390625 </v>
   <v>       0.00390625 </v>
   <v>       0.00390625 </v>
   <v>       0.00390625 </v>
   <v>       0.00390625 </v>
   <v>       0.00390625 </v>
   <v>       0.00390625 </v>
   <v>       0.00390625 </v>
   <v>       0.00390625 </v>
   <v>       0.00390625 </v>
   <v>       0.00390625 </v>
   <v>       0.00390625 </v>
   <v>       0.00390625 </v>
   <v>       0.00390625 </v>
   <v>       0.00390625 </v>
   <v>       0.00390625 </v>
   <v>       0.00390625 </v>
   <v>       0.00390625 </v>
   <v>       0.00390625 </v>
   <v>       0.00390625 </v>
   <v>       0.00195313 </v>
   <v>       0.00195313 </v>
   <v>       0.00195313 </v>
   <v>       0.00390625 </v>
   <v>       0.00390625 </v>
   <v>       0.00390625 </v>
   <v>       0.00390625 </v>
   <v>       0.00390625 </v>
   <v>       0.00390625 </v>
   <v>       0.00390625 </v>
   <v>       0.00390625 </v>
   <v>       0.00390625 </v>
   <v>       0.00390625 </v>
   <v>       0.00390625 </v>
   <v>       0.00390625 </v>
   <v>       0.00390625 </v>
   <v>       0.00390625 </v>
   <v>       0.00390625 </v>
   <v>       0.00390625 </v>
   <v>       0.00390625 </v>
   <v>       0.00390625 </v>
   <v>       0.00390625 </v>
   <v>       0.00390625 </v>
   <v>       0.00390625 </v>
   <v>       0.00390625 </v>
   <v>       0.00390625 </v>
   <v>       0.00390625 </v>
   <v>       0.00390625 </v>
   <v>       0.00390625 </v>
   <v>       0.00390625 </v>
   <v>       0.00390625 </v>
   <v>       0.00390625 </v>
   <v>       0.00390625 </v>
   <v>       0.00390625 </v>
   <v>       0.00390625 </v>
   <v>       0.00390625 </v>
   <v>       0.00390625 </v>
   <v>       0.00390625 </v>
   <v>       0.00390625 </v>
   <v>       0.00390625 </v>
   <v>       0.00390625 </v>
   <v>       0.00390625 </v>
   <v>       0.00390625 </v>
   <v>       0.00390625 </v>
   <v>       0.00390625 </v>
   <v>       0.00390625 </v>
   <v>       0.00390625 </v>
   <v>       0.00390625 </v>
   <v>       0.00390625 </v>
   <v>       0.00390625 </v>
   <v>       0.00390625 </v>
   <v>       0.00390625 </v>
   <v>       0.00390625 </v>
   <v>       0.00390625 </v>
   <v>       0.00390625 </v>
   <v>       0.00390625 </v>
   <v>       0.00390625 </v>
   <v>       0.00390625 </v>
   <v>       0.00390625 </v>
   <v>       0.00390625 </v>
   <v>       0.00390625 </v>
   <v>       0.00390625 </v>
   <v>       0.00390625 </v>
   <v>       0.00390625 </v>
   <v>       0.00390625 </v>
   <v>       0.00390625 </v>
   <v>       0.00390625 </v>
   <v>       0.00390625 </v>
   <v>       0.00390625 </v>
   <v>       0.00390625 </v>
   <v>       0.00390625 </v>
   <v>       0.00390625 </v>
   <v>       0.00390625 </v>
   <v>       0.00390625 </v>
   <v>       0.00390625 </v>
   <v>       0.00390625 </v>
   <v>       0.00390625 </v>
   <v>       0.00390625 </v>
   <v>       0.00390625 </v>
   <v>       0.00390625 </v>
   <v>       0.00390625 </v>
   <v>       0.00390625 </v>
   <v>       0.00390625 </v>
   <v>       0.00390625 </v>
   <v>       0.00390625 </v>
   <v>       0.00390625 </v>
   <v>       0.00390625 </v>
   <v>       0.00390625 </v>
   <v>       0.00390625 </v>
   <v>       0.00390625 </v>
   <v>       0.00390625 </v>
   <v>       0.00390625 </v>
   <v>       0.00390625 </v>
   <v>       0.00390625 </v>
   <v>       0.00390625 </v>
   <v>       0.00390625 </v>
   <v>       0.00390625 </v>
   <v>       0.00390625 </v>
   <v>       0.00390625 </v>
   <v>       0.00390625 </v>
   <v>       0.00390625 </v>
   <v>       0.00390625 </v>
   <v>       0.00390625 </v>
   <v>       0.00390625 </v>
   <v>       0.00390625 </v>
   <v>       0.00390625 </v>
   <v>       0.00390625 </v>
   <v>       0.00390625 </v>
  </varray>
 </kpoints>
 <parameters>
  <separator name="general" >
   <i type="string" name="SYSTEM">unknown system</i>
   <i type="logical" name="LCOMPAT"> F  </i>
  </separator>
  <separator name="electronic" >
   <i type="string" name="PREC">normal</i>
   <i name="ENMAX">    400.00000000</i>
   <i name="ENAUG">    358.96600000</i>
   <i name="EDIFF">      0.00010000</i>
   <i type="int" name="IALGO">    38</i>
   <i type="int" name="IWAVPR">    10</i>
   <i type="int" name="NBANDS">    12</i>
   <i type="int" name="NBANDSLOW">    -1</i>
   <i type="int" name="NBANDSHIGH">    -1</i>
   <i name="NELECT">     10.00000000</i>
   <i type="int" name="TURBO">     0</i>
   <i type="int" name="IRESTART">     0</i>
   <i type="int" name="NREBOOT">     0</i>
   <i type="int" name="NMIN">     0</i>
   <i name="EREF">      0.00000000</i>
   <separator name="electronic smearing" >
    <i type="int" name="ISMEAR">     0</i>
    <i name="SIGMA">      0.05000000</i>
    <i name="KSPACING">      0.50000000</i>
    <i type="logical" name="KGAMMA"> T  </i>
    <i type="logical" name="KBLOWUP"> T  </i>
   </separator>
   <separator name="electronic projectors" >
    <i type="logical" name="LREAL"> F  </i>
    <v name="ROPT">      0.00000000</v>
    <i type="int" name="LMAXPAW">  -100</i>
    <i type="int" name="LMAXMIX">     2</i>
    <i type="logical" name="NLSPLINE"> F  </i>
   </separator>
   <separator name="electronic startup" >
    <i type="int" name="ISTART">     0</i>
    <i type="int" name="ICHARG">     2</i>
    <i type="int" name="INIWAV">     1</i>
   </separator>
   <separator name="electronic spin" >
    <i type="int" name="ISPIN">     1</i>
    <i type="logical" name="LNONCOLLINEAR"> F  </i>
    <v name="MAGMOM">      1.00000000</v>
    <i name="NUPDOWN">     -1.00000000</i>
    <i type="logical" name="LSORBIT"> F  </i>
    <v name="SAXIS">      0.00000000      0.00000000      1.00000000</v>
    <i type="logical" name="LSPIRAL"> F  </i>
    <v name="QSPIRAL">      0.00000000      0.00000000      0.00000000</v>
    <i type="logical" name="LZEROZ"> F  </i>
   </separator>
   <separator name="electronic exchange-correlation" >
    <i type="logical" name="LASPH"> F  </i>
    <i type="logical" name="LMETAGGA"> F  </i>
   </separator>
   <separator name="electronic convergence" >
    <i type="int" name="NELM">    60</i>
    <i type="int" name="NELMDL">    -5</i>
    <i type="int" name="NELMIN">     4</i>
    <i name="ENINI">    400.00000000</i>
    <separator name="electronic convergence detail" >
     <i type="logical" name="LDIAG"> T  </i>
     <i type="logical" name="LSUBROT"> F  </i>
     <i name="WEIMIN">      0.00000000</i>
     <i name="EBREAK">      0.00000208</i>
     <i name="DEPER">      0.30000000</i>
     <i type="int" name="NRMM">     4</i>
     <i name="TIME">      0.40000000</i>
    </separator>
   </separator>
   <separator name="electronic mixer" >
    <i name="AMIX">      0.40000000</i>
    <i name="BMIX">      1.00000000</i>
    <i name="AMIN">      0.10000000</i>
    <i name="AMIX_MAG">      1.60000000</i>
    <i name="BMIX_MAG">      1.00000000</i>
    <separator name="electronic mixer details" >
     <i type="int" name="IMIX">     4</i>
     <i type="logical" name="MIXFIRST"> F  </i>
     <i type="int" name="MAXMIX">   -45</i>
     <i name="WC">    100.00000000</i>
     <i type="int" name="INIMIX">     1</i>
     <i type="int" name="MIXPRE">     1</i>
     <i type="int" name="MREMOVE">     5</i>
    </separator>
   </separator>
   <separator name="electronic dipolcorrection" >
    <i type="logical" name="LDIPOL"> F  </i>
    <i type="logical" name="LMONO"> F  </i>
    <i type="int" name="IDIPOL">     0</i>
    <i name="EPSILON">      1.00000000</i>
    <v name="DIPOL">   -100.00000000   -100.00000000   -100.00000000</v>
    <i name="EFIELD">      0.00000000</i>
   </separator>
  </separator>
  <separator name="grids" >
   <i type="int" name="NGX">    14</i>
   <i type="int" name="NGY">    14</i>
   <i type="int" name="NGZ">    14</i>
   <i type="int" name="NGXF">    28</i>
   <i type="int" name="NGYF">    28</i>
   <i type="int" name="NGZF">    28</i>
   <i type="logical" name="ADDGRID"> F  </i>
  </separator>
  <separator name="ionic" >
   <i type="int" name="NSW">     0</i>
   <i type="int" name="IBRION">    -1</i>
   <i type="int" name="MDALGO">     0</i>
   <i type="int" name="ISIF">     0</i>
   <i name="PSTRESS">      0.00000000</i>
   <i name="EDIFFG">     -0.03000000</i>
   <i type="int" name="NFREE">     1</i>
   <i name="POTIM">      0.50000000</i>
   <i name="SMASS">     -3.00000000</i>
   <i name="SCALEE">      1.00000000</i>
  </separator>
  <separator name="ionic md" >
   <i name="TEBEG">      0.00010000</i>
   <i name="TEEND">      0.00010000</i>
   <i type="int" name="NBLOCK">     1</i>
   <i type="int" name="KBLOCK">     1</i>
   <i type="int" name="NPACO">   256</i>
   <i name="APACO">     16.00000000</i>
  </separator>
  <separator name="symmetry" >
   <i type="int" name="ISYM">     0</i>
   <i name="SYMPREC">      0.00000100</i>
  </separator>
  <separator name="dos" >
   <i type="int" name="LORBIT">    11</i>
   <v name="RWIGS">     -1.00000000</v>
   <i type="int" name="NEDOS">   301</i>
   <i name="EMIN">     10.00000000</i>
   <i name="EMAX">    -10.00000000</i>
   <i name="EFERMI">      0.00000000</i>
  </separator>
  <separator name="writing" >
   <i type="int" name="NWRITE">     2</i>
   <i type="logical" name="LWAVE"> F  </i>
   <i type="logical" name="LDOWNSAMPLE"> F  </i>
   <i type="logical" name="LCHARG"> T  </i>
   <i type="logical" name="LPARD"> F  </i>
   <i type="logical" name="LVTOT"> F  </i>
   <i type="logical" name="LVHAR"> F  </i>
   <i type="logical" name="LELF"> F  </i>
   <i type="logical" name="LOPTICS"> F  </i>
   <v name="STM">      0.00000000      0.00000000      0.00000000      0.00000000      0.00000000      0.00000000      0.00000000</v>
  </separator>
  <separator name="performance" >
   <i type="int" name="NPAR">     4</i>
   <i type="int" name="NSIM">     4</i>
   <i type="int" name="NBLK">    -1</i>
   <i type="logical" name="LPLANE"> T  </i>
   <i type="logical" name="LSCALAPACK"> T  </i>
   <i type="logical" name="LSCAAWARE"> F  </i>
   <i type="logical" name="LSCALU"> F  </i>
   <i type="logical" name="LASYNC"> F  </i>
   <i type="logical" name="LORBITALREAL"> F  </i>
  </separator>
  <separator name="miscellaneous" >
   <i type="int" name="IDIOT">     3</i>
   <i type="int" name="PHON_NSTRUCT">    -1</i>
   <i type="logical" name="LMUSIC"> F  </i>
   <v name="POMASS">    195.08000000</v>
   <v name="DARWINR">      0.00000000</v>
   <v name="DARWINV">      1.00000000</v>
   <i type="logical" name="LCORR"> T  </i>
  </separator>
  <i type="logical" name="GGA_COMPAT"> T  </i>
  <i type="logical" name="LBERRY"> F  </i>
  <i type="int" name="ICORELEVEL">     0</i>
  <i type="logical" name="LDAU"> F  </i>
  <i type="int" name="I_CONSTRAINED_M">     0</i>
  <separator name="electronic exchange-correlation" >
   <i type="string" name="GGA">RP</i>
   <i type="int" name="VOSKOWN">     0</i>
   <i type="logical" name="LHFCALC"> F  </i>
   <i type="string" name="PRECFOCK"></i>
   <i type="logical" name="LSYMGRAD"> F  </i>
   <i type="logical" name="LHFONE"> F  </i>
   <i type="logical" name="LRHFCALC"> F  </i>
   <i type="logical" name="LTHOMAS"> F  </i>
   <i type="logical" name="LMODELHF"> F  </i>
   <i type="logical" name="LFOCKACE"> F  </i>
   <i name="ENCUT4O">     -1.00000000</i>
   <i type="int" name="EXXOEP">     0</i>
   <i type="int" name="FOURORBIT">     0</i>
   <i name="AEXX">      0.00000000</i>
   <i name="HFALPHA">      0.00000000</i>
   <i name="MCALPHA">      0.00000000</i>
   <i name="ALDAX">      1.00000000</i>
   <i name="AGGAX">      1.00000000</i>
   <i name="ALDAC">      1.00000000</i>
   <i name="AGGAC">      1.00000000</i>
   <i type="int" name="NKREDX">     1</i>
   <i type="int" name="NKREDY">     1</i>
   <i type="int" name="NKREDZ">     1</i>
   <i type="logical" name="SHIFTRED"> F  </i>
   <i type="logical" name="ODDONLY"> F  </i>
   <i type="logical" name="EVENONLY"> F  </i>
   <i type="int" name="LMAXFOCK">     0</i>
   <i type="int" name="NMAXFOCKAE">     0</i>
   <i type="logical" name="LFOCKAEDFT"> F  </i>
   <i name="HFSCREEN">      0.00000000</i>
   <i name="HFSCREENC">      0.00000000</i>
   <i type="int" name="NBANDSGWLOW">     0</i>
  </separator>
  <separator name="vdW DFT" >
   <i type="logical" name="LUSE_VDW"> F  </i>
   <i name="Zab_VDW">     -0.84910000</i>
   <i name="PARAM1">      0.12340000</i>
   <i name="PARAM2">      1.00000000</i>
   <i name="PARAM3">      0.00000000</i>
  </separator>
  <separator name="model GW" >
   <i type="int" name="MODEL_GW">     0</i>
   <i name="MODEL_EPS0">      9.05828100</i>
   <i name="MODEL_ALPHA">      1.00000000</i>
  </separator>
  <separator name="linear response parameters" >
   <i type="logical" name="LEPSILON"> F  </i>
   <i type="logical" name="LRPA"> F  </i>
   <i type="logical" name="LNABLA"> F  </i>
   <i type="logical" name="LVEL"> F  </i>
   <i type="int" name="KINTER">     0</i>
   <i name="CSHIFT">      0.10000000</i>
   <i name="OMEGAMAX">     -1.00000000</i>
   <i name="DEG_THRESHOLD">      0.00200000</i>
   <i name="RTIME">     -0.10000000</i>
   <i name="WPLASMAI">      0.00000000</i>
   <v name="DFIELD">      0.00000000      0.00000000      0.00000000</v>
   <v name="WPLASMA">      0.00000000      0.00000000      0.00000000      0.00000000      0.00000000      0.00000000      0.00000000      0.00000000      0.00000000</v>
  </separator>
  <separator name="orbital magnetization" >
   <i type="logical" name="NUCIND"> F  </i>
   <v name="MAGPOS">      0.00000000      0.00000000      0.00000000</v>
   <i type="logical" name="LNICSALL"> T  </i>
   <i type="logical" name="ORBITALMAG"> F  </i>
   <i type="logical" name="LMAGBLOCH"> F  </i>
   <i type="logical" name="LCHIMAG"> F  </i>
   <i type="logical" name="LGAUGE"> T  </i>
   <i type="int" name="MAGATOM">     0</i>
   <v name="MAGDIPOL">      0.00000000      0.00000000      0.00000000</v>
   <v name="AVECCONST">      0.00000000      0.00000000      0.00000000</v>
  </separator>
  <separator name="response functions" >
   <i type="logical" name="LFINITE_TEMPERATURE"> F  </i>
   <i type="logical" name="LADDER"> F  </i>
   <i type="logical" name="LRPAFORCE"> F  </i>
   <i type="logical" name="LFXC"> F  </i>
   <i type="logical" name="LHARTREE"> T  </i>
   <i type="int" name="IBSE">     0</i>
   <v type="int" name="KPOINT">    -1     0     0     0</v>
   <i type="logical" name="LTCTC"> F  </i>
   <i type="logical" name="LTCTE"> F  </i>
   <i type="logical" name="LTETE"> F  </i>
   <i type="logical" name="LTRIPLET"> F  </i>
   <i type="logical" name="LFXCEPS"> F  </i>
   <i type="logical" name="LFXHEG"> F  </i>
   <i type="int" name="NATURALO">     2</i>
   <i type="logical" name="LHOLEGF"> F  </i>
   <i type="logical" name="L2ORDER"> F  </i>
   <i type="logical" name="LDMP1"> F  </i>
   <i type="logical" name="LMP2LT"> F  </i>
   <i type="logical" name="LSMP2LT"> F  </i>
   <i type="logical" name="LGWLF"> F  </i>
   <i name="ENCUTGW">     -2.00000000</i>
   <i name="ENCUTGWSOFT">     -2.00000000</i>
   <i name="ENCUTLF">     -1.00000000</i>
   <i type="logical" name="LESF_SPLINES"> F  </i>
   <i type="int" name="LMAXMP2">    -1</i>
   <i name="SCISSOR">      0.00000000</i>
   <i type="int" name="NOMEGA">     0</i>
   <i type="int" name="NOMEGAR">     0</i>
   <i type="int" name="NBANDSGW">    -1</i>
   <i type="int" name="NBANDSO">    -1</i>
   <i type="int" name="NBANDSV">    -1</i>
   <i type="int" name="NELM">    60</i>
   <i type="int" name="NELMHF">     1</i>
   <i type="int" name="DIM">     3</i>
   <i type="int" name="IESPILON">     4</i>
   <i type="int" name="ANTIRES">     0</i>
   <i name="OMEGAMAX">    -30.00000000</i>
   <i name="OMEGAMIN">    -30.00000000</i>
   <i name="OMEGATL">   -200.00000000</i>
   <i type="int" name="OMEGAGRID">     0</i>
   <i name="CSHIFT">     -0.10000000</i>
   <i type="logical" name="LSELFENERGY"> F  </i>
   <i type="logical" name="LSPECTRAL"> F  </i>
   <i type="logical" name="LSPECTRALGW"> F  </i>
   <i type="logical" name="LSINGLES"> F  </i>
   <i type="logical" name="LFERMIGW"> F  </i>
   <i type="logical" name="ODDONLYGW"> F  </i>
   <i type="logical" name="EVENONLYGW"> F  </i>
   <i type="int" name="NKREDLFX">     1</i>
   <i type="int" name="NKREDLFY">     1</i>
   <i type="int" name="NKREDLFZ">     1</i>
   <i type="int" name="MAXMEM">  2800</i>
   <i type="int" name="TELESCOPE">     0</i>
   <i type="int" name="NTAUPAR">    -1</i>
   <i type="int" name="NOMEGAPAR">    -1</i>
   <i name="DAMP_NEWTON">      0.80000001</i>
   <i name="LAMBDA">      1.00000000</i>
  </separator>
  <separator name="External order field" >
   <i name="OFIELD_KAPPA">      0.00000000</i>
   <v name="OFIELD_K">      0.00000000      0.00000000      0.00000000</v>
   <i name="OFIELD_Q6_NEAR">      0.00000000</i>
   <i name="OFIELD_Q6_FAR">      0.00000000</i>
   <i name="OFIELD_A">      0.00000000</i>
  </separator>
 </parameters>
 <atominfo>
  <atoms>       1 </atoms>
  <types>       1 </types>
  <array name="atoms" >
   <dimension dim="1">ion</dimension>
   <field type="string">element</field>
   <field type="int">atomtype</field>
   <set>
    <rc><c>Pt</c><c>   1</c></rc>
   </set>
  </array>
  <array name="atomtypes" >
   <dimension dim="1">type</dimension>
   <field type="int">atomspertype</field>
   <field type="string">element</field>
   <field>mass</field>
   <field>valence</field>
   <field type="string">pseudopotential</field>
   <set>
    <rc><c>   1</c><c>Pt</c><c>    195.08000000</c><c>     10.00000000</c><c>  PAW_PBE Pt 04Feb2005                  </c></rc>
   </set>
  </array>
 </atominfo>
 <structure name="initialpos" >
  <crystal>
   <varray name="basis" >
    <v>       2.40252100       0.00000000       1.38709600 </v>
    <v>       0.80084000       2.26511800       1.38709600 </v>
    <v>       0.00000000       0.00000000       2.77419200 </v>
   </varray>
   <i name="volume">     15.09713501 </i>
   <varray name="rec_basis" >
    <v>       0.41622945      -0.14715931       0.00000000 </v>
    <v>       0.00000000       0.44147810       0.00000000 </v>
    <v>      -0.20811473      -0.14715940       0.36046532 </v>
   </varray>
  </crystal>
  <varray name="positions" >
   <v>       0.00000000       0.00000000       0.00000000 </v>
  </varray>
 </structure>
 <calculation>
  <scstep>
   <time name="dav">    1.11    1.11</time>
   <time name="total">    1.12    1.13</time>
   <energy>
    <i name="alphaZ">     62.96444125 </i>
    <i name="ewald">   -841.39677442 </i>
    <i name="hartreedc">    -71.62362880 </i>
    <i name="XCdc">      3.54297476 </i>
    <i name="pawpsdc">    696.70595042 </i>
    <i name="pawaedc">   -667.45827301 </i>
    <i name="eentropy">     -0.00150214 </i>
    <i name="bandstr">    121.38426416 </i>
    <i name="atom">    728.31879008 </i>
    <i name="e_fr_energy">     32.43624229 </i>
    <i name="e_wo_entrp">     32.43774443 </i>
    <i name="e_0_energy">     32.43699336 </i>
   </energy>
  </scstep>
  <scstep>
   <time name="dav">    1.16    1.16</time>
   <time name="total">    1.17    1.17</time>
   <energy>
    <i name="e_fr_energy">     -5.29512727 </i>
    <i name="e_wo_entrp">     -5.29308587 </i>
    <i name="e_0_energy">     -5.29410657 </i>
   </energy>
  </scstep>
  <scstep>
   <time name="dav">    1.16    1.17</time>
   <time name="total">    1.17    1.17</time>
   <energy>
    <i name="e_fr_energy">     -5.76169895 </i>
    <i name="e_wo_entrp">     -5.75963217 </i>
    <i name="e_0_energy">     -5.76066556 </i>
   </energy>
  </scstep>
  <scstep>
   <time name="dav">    1.14    1.14</time>
   <time name="total">    1.14    1.15</time>
   <energy>
    <i name="e_fr_energy">     -5.76359024 </i>
    <i name="e_wo_entrp">     -5.76152257 </i>
    <i name="e_0_energy">     -5.76255640 </i>
   </energy>
  </scstep>
  <scstep>
   <time name="dav">    1.17    1.17</time>
   <time name="total">    1.19    1.19</time>
   <energy>
    <i name="e_fr_energy">     -5.76360540 </i>
    <i name="e_wo_entrp">     -5.76153773 </i>
    <i name="e_0_energy">     -5.76257157 </i>
   </energy>
  </scstep>
  <scstep>
   <time name="dav">    1.05    1.05</time>
   <time name="total">    1.08    1.08</time>
   <energy>
    <i name="e_fr_energy">     -5.45458435 </i>
    <i name="e_wo_entrp">     -5.45222330 </i>
    <i name="e_0_energy">     -5.45340382 </i>
   </energy>
  </scstep>
  <scstep>
   <time name="dav">    1.13    1.14</time>
   <time name="total">    1.16    1.16</time>
   <energy>
    <i name="e_fr_energy">     -5.41410677 </i>
    <i name="e_wo_entrp">     -5.41119970 </i>
    <i name="e_0_energy">     -5.41265324 </i>
   </energy>
  </scstep>
  <scstep>
   <time name="dav">    1.08    1.08</time>
   <time name="total">    1.11    1.11</time>
   <energy>
    <i name="e_fr_energy">     -5.41112310 </i>
    <i name="e_wo_entrp">     -5.40832033 </i>
    <i name="e_0_energy">     -5.40972172 </i>
   </energy>
  </scstep>
  <scstep>
   <time name="dav">    1.11    1.11</time>
   <time name="total">    1.14    1.14</time>
   <energy>
    <i name="e_fr_energy">     -5.41086931 </i>
    <i name="e_wo_entrp">     -5.40804714 </i>
    <i name="e_0_energy">     -5.40945822 </i>
   </energy>
  </scstep>
  <scstep>
   <time name="dav">    0.76    0.76</time>
   <time name="total">    0.77    0.77</time>
   <energy>
    <i name="alphaZ">     62.96444125 </i>
    <i name="ewald">   -841.39677442 </i>
    <i name="hartreedc">    -61.32577199 </i>
    <i name="XCdc">      3.22016709 </i>
    <i name="pawpsdc">    939.65782369 </i>
    <i name="pawaedc">   -913.66187789 </i>
    <i name="eentropy">     -0.00282288 </i>
    <i name="bandstr">     76.81515418 </i>
    <i name="atom">    728.31879008 </i>
    <i name="e_fr_energy">     -5.41087089 </i>
    <i name="e_wo_entrp">     -5.40804801 </i>
    <i name="e_0_energy">     -5.40945945 </i>
   </energy>
  </scstep>
  <structure>
   <crystal>
    <varray name="basis" >
     <v>       2.40252100       0.00000000       1.38709600 </v>
     <v>       0.80084000       2.26511800       1.38709600 </v>
     <v>       0.00000000       0.00000000       2.77419200 </v>
    </varray>
    <i name="volume">     15.09713501 </i>
    <varray name="rec_basis" >
     <v>       0.41622945      -0.14715931       0.00000000 </v>
     <v>       0.00000000       0.44147810       0.00000000 </v>
     <v>      -0.20811473      -0.14715940       0.36046532 </v>
    </varray>
   </crystal>
   <varray name="positions" >
    <v>       0.00000000       0.00000000       0.00000000 </v>
   </varray>
  </structure>
  <varray name="forces" >
   <v>      -0.00000182       0.00000108       0.00000788 </v>
  </varray>
  <energy>
   <i name="e_fr_energy">     -5.41087089 </i>
   <i name="e_wo_entrp">     -5.40804801 </i>
   <i name="e_0_energy">     -5.40945945 </i>
  </energy>
  <time name="totalsc">   11.14   11.17</time>
  <eigenvalues>
   <array>
    <dimension dim="1">band</dimension>
    <dimension dim="2">kpoint</dimension>
    <dimension dim="3">spin</dimension>
    <field>eigene</field>
    <field>occ</field>
    <set>
     <set comment="spin 1">
      <set comment="kpoint 1">
       <r>    1.1534    1.0000 </r>
       <r>    7.5163    1.0000 </r>
       <r>    7.5163    1.0000 </r>
       <r>    7.5163    1.0000 </r>
       <r>    9.6624    1.0000 </r>
       <r>    9.6624    1.0000 </r>
       <r>   25.9498    0.0000 </r>
       <r>   30.9304    0.0000 </r>
       <r>   30.9304    0.0000 </r>
       <r>   30.9304    0.0000 </r>
       <r>   36.2703    0.0000 </r>
       <r>   43.4217    0.0000 </r>
      </set>
      <set comment="kpoint 2">
       <r>    1.7633    1.0000 </r>
       <r>    7.2759    1.0000 </r>
       <r>    7.7344    1.0000 </r>
       <r>    7.7344    1.0000 </r>
       <r>    9.5623    1.0000 </r>
       <r>    9.5623    1.0000 </r>
       <r>   26.8373    0.0000 </r>
       <r>   28.4725    0.0000 </r>
       <r>   31.8681    0.0000 </r>
       <r>   31.8681    0.0000 </r>
       <r>   37.5843    0.0000 </r>
       <r>   40.4394    0.0000 </r>
      </set>
      <set comment="kpoint 3">
       <r>    1.7633    1.0000 </r>
       <r>    7.2759    1.0000 </r>
       <r>    7.7344    1.0000 </r>
       <r>    7.7344    1.0000 </r>
       <r>    9.5623    1.0000 </r>
       <r>    9.5623    1.0000 </r>
       <r>   26.8373    0.0000 </r>
       <r>   28.4726    0.0000 </r>
       <r>   31.8681    0.0000 </r>
       <r>   31.8681    0.0000 </r>
       <r>   37.5843    0.0000 </r>
       <r>   40.4381    0.0000 </r>
      </set>
      <set comment="kpoint 4">
       <r>    1.7633    1.0000 </r>
       <r>    7.2759    1.0000 </r>
       <r>    7.7344    1.0000 </r>
       <r>    7.7344    1.0000 </r>
       <r>    9.5623    1.0000 </r>
       <r>    9.5623    1.0000 </r>
       <r>   26.8373    0.0000 </r>
       <r>   28.4725    0.0000 </r>
       <r>   31.8681    0.0000 </r>
       <r>   31.8681    0.0000 </r>
       <r>   37.5843    0.0000 </r>
       <r>   40.4381    0.0000 </r>
      </set>
      <set comment="kpoint 5">
       <r>    1.7633    1.0000 </r>
       <r>    7.2759    1.0000 </r>
       <r>    7.7344    1.0000 </r>
       <r>    7.7344    1.0000 </r>
       <r>    9.5623    1.0000 </r>
       <r>    9.5623    1.0000 </r>
       <r>   26.8373    0.0000 </r>
       <r>   28.4726    0.0000 </r>
       <r>   31.8681    0.0000 </r>
       <r>   31.8681    0.0000 </r>
       <r>   37.5843    0.0000 </r>
       <r>   40.4377    0.0000 </r>
      </set>
      <set comment="kpoint 6">
       <r>    3.1919    1.0000 </r>
       <r>    7.1787    1.0000 </r>
       <r>    7.8887    1.0000 </r>
       <r>    7.8887    1.0000 </r>
       <r>    9.8379    1.0000 </r>
       <r>    9.8379    1.0000 </r>
       <r>   24.6337    0.0000 </r>
       <r>   27.6819    0.0000 </r>
       <r>   33.9750    0.0000 </r>
       <r>   33.9750    0.0000 </r>
       <r>   34.8458    0.0000 </r>
       <r>   36.2646    0.0000 </r>
      </set>
      <set comment="kpoint 7">
       <r>    3.1919    1.0000 </r>
       <r>    7.1787    1.0000 </r>
       <r>    7.8887    1.0000 </r>
       <r>    7.8887    1.0000 </r>
       <r>    9.8379    1.0000 </r>
       <r>    9.8379    1.0000 </r>
       <r>   24.6337    0.0000 </r>
       <r>   27.6819    0.0000 </r>
       <r>   33.9749    0.0000 </r>
       <r>   33.9750    0.0000 </r>
       <r>   34.8458    0.0000 </r>
       <r>   36.2646    0.0000 </r>
      </set>
      <set comment="kpoint 8">
       <r>    3.1919    1.0000 </r>
       <r>    7.1787    1.0000 </r>
       <r>    7.8887    1.0000 </r>
       <r>    7.8887    1.0000 </r>
       <r>    9.8379    1.0000 </r>
       <r>    9.8379    1.0000 </r>
       <r>   24.6337    0.0000 </r>
       <r>   27.6819    0.0000 </r>
       <r>   33.9749    0.0000 </r>
       <r>   33.9750    0.0000 </r>
       <r>   34.8458    0.0000 </r>
       <r>   36.2646    0.0000 </r>
      </set>
      <set comment="kpoint 9">
       <r>    3.1919    1.0000 </r>
       <r>    7.1787    1.0000 </r>
       <r>    7.8887    1.0000 </r>
       <r>    7.8887    1.0000 </r>
       <r>    9.8379    1.0000 </r>
       <r>    9.8379    1.0000 </r>
       <r>   24.6337    0.0000 </r>
       <r>   27.6819    0.0000 </r>
       <r>   33.9749    0.0000 </r>
       <r>   33.9749    0.0000 </r>
       <r>   34.8458    0.0000 </r>
       <r>   36.2646    0.0000 </r>
      </set>
      <set comment="kpoint 10">
       <r>    3.9706    1.0000 </r>
       <r>    7.6118    1.0000 </r>
       <r>    7.6118    1.0000 </r>
       <r>    8.8531    1.0000 </r>
       <r>   10.7901    1.0000 </r>
       <r>   10.7901    1.0000 </r>
       <r>   20.1117    0.0000 </r>
       <r>   26.2192    0.0000 </r>
       <r>   31.7312    0.0000 </r>
       <r>   31.7313    0.0000 </r>
       <r>   37.7281    0.0000 </r>
       <r>   37.9724    0.0000 </r>
      </set>
      <set comment="kpoint 11">
       <r>    3.9706    1.0000 </r>
       <r>    7.6118    1.0000 </r>
       <r>    7.6118    1.0000 </r>
       <r>    8.8531    1.0000 </r>
       <r>   10.7901    1.0000 </r>
       <r>   10.7901    1.0000 </r>
       <r>   20.1117    0.0000 </r>
       <r>   26.2192    0.0000 </r>
       <r>   31.7312    0.0000 </r>
       <r>   31.7313    0.0000 </r>
       <r>   37.7281    0.0000 </r>
       <r>   37.9725    0.0000 </r>
      </set>
      <set comment="kpoint 12">
       <r>    3.9706    1.0000 </r>
       <r>    7.6118    1.0000 </r>
       <r>    7.6118    1.0000 </r>
       <r>    8.8531    1.0000 </r>
       <r>   10.7901    1.0000 </r>
       <r>   10.7901    1.0000 </r>
       <r>   20.1117    0.0000 </r>
       <r>   26.2192    0.0000 </r>
       <r>   31.7312    0.0000 </r>
       <r>   31.7313    0.0000 </r>
       <r>   37.7281    0.0000 </r>
       <r>   37.9724    0.0000 </r>
      </set>
      <set comment="kpoint 13">
       <r>    3.9706    1.0000 </r>
       <r>    7.6118    1.0000 </r>
       <r>    7.6118    1.0000 </r>
       <r>    8.8531    1.0000 </r>
       <r>   10.7901    1.0000 </r>
       <r>   10.7901    1.0000 </r>
       <r>   20.1117    0.0000 </r>
       <r>   26.2192    0.0000 </r>
       <r>   31.7312    0.0000 </r>
       <r>   31.7312    0.0000 </r>
       <r>   37.7306    0.0000 </r>
       <r>   37.9725    0.0000 </r>
      </set>
      <set comment="kpoint 14">
       <r>    4.0118    1.0000 </r>
       <r>    7.4550    1.0000 </r>
       <r>    7.4550    1.0000 </r>
       <r>   10.8797    1.0000 </r>
       <r>   11.3214    0.0991 </r>
       <r>   11.3214    0.0991 </r>
       <r>   17.1586    0.0000 </r>
       <r>   25.5261    0.0000 </r>
       <r>   30.3133    0.0000 </r>
       <r>   30.3134    0.0000 </r>
       <r>   39.7024    0.0000 </r>
       <r>   39.7024    0.0000 </r>
      </set>
      <set comment="kpoint 15">
       <r>    4.0118    1.0000 </r>
       <r>    7.4550    1.0000 </r>
       <r>    7.4550    1.0000 </r>
       <r>   10.8797    1.0000 </r>
       <r>   11.3214    0.0991 </r>
       <r>   11.3214    0.0991 </r>
       <r>   17.1586    0.0000 </r>
       <r>   25.5261    0.0000 </r>
       <r>   30.3133    0.0000 </r>
       <r>   30.3134    0.0000 </r>
       <r>   39.7024    0.0000 </r>
       <r>   39.7024    0.0000 </r>
      </set>
      <set comment="kpoint 16">
       <r>    4.0118    1.0000 </r>
       <r>    7.4550    1.0000 </r>
       <r>    7.4550    1.0000 </r>
       <r>   10.8797    1.0000 </r>
       <r>   11.3214    0.0991 </r>
       <r>   11.3214    0.0991 </r>
       <r>   17.1586    0.0000 </r>
       <r>   25.5261    0.0000 </r>
       <r>   30.3133    0.0000 </r>
       <r>   30.3134    0.0000 </r>
       <r>   39.7024    0.0000 </r>
       <r>   39.7024    0.0000 </r>
      </set>
      <set comment="kpoint 17">
       <r>    4.0118    1.0000 </r>
       <r>    7.4550    1.0000 </r>
       <r>    7.4550    1.0000 </r>
       <r>   10.8797    1.0000 </r>
       <r>   11.3214    0.0991 </r>
       <r>   11.3214    0.0991 </r>
       <r>   17.1586    0.0000 </r>
       <r>   25.5261    0.0000 </r>
       <r>   30.3133    0.0000 </r>
       <r>   30.3133    0.0000 </r>
       <r>   39.7024    0.0000 </r>
       <r>   39.7024    0.0000 </r>
      </set>
      <set comment="kpoint 18">
       <r>    1.9712    1.0000 </r>
       <r>    7.0041    1.0000 </r>
       <r>    7.9449    1.0000 </r>
       <r>    7.9449    1.0000 </r>
       <r>    9.0997    1.0000 </r>
       <r>    9.8771    1.0000 </r>
       <r>   27.2115    0.0000 </r>
       <r>   29.4718    0.0000 </r>
       <r>   30.9091    0.0000 </r>
       <r>   30.9091    0.0000 </r>
       <r>   39.0828    0.0000 </r>
       <r>   39.0828    0.0000 </r>
      </set>
      <set comment="kpoint 19">
       <r>    1.9712    1.0000 </r>
       <r>    7.0041    1.0000 </r>
       <r>    7.9449    1.0000 </r>
       <r>    7.9449    1.0000 </r>
       <r>    9.0997    1.0000 </r>
       <r>    9.8771    1.0000 </r>
       <r>   27.2115    0.0000 </r>
       <r>   29.4718    0.0000 </r>
       <r>   30.9091    0.0000 </r>
       <r>   30.9091    0.0000 </r>
       <r>   39.0828    0.0000 </r>
       <r>   39.0828    0.0000 </r>
      </set>
      <set comment="kpoint 20">
       <r>    1.9712    1.0000 </r>
       <r>    7.0041    1.0000 </r>
       <r>    7.9449    1.0000 </r>
       <r>    7.9449    1.0000 </r>
       <r>    9.0997    1.0000 </r>
       <r>    9.8771    1.0000 </r>
       <r>   27.2115    0.0000 </r>
       <r>   29.4718    0.0000 </r>
       <r>   30.9091    0.0000 </r>
       <r>   30.9091    0.0000 </r>
       <r>   39.0828    0.0000 </r>
       <r>   39.0830    0.0000 </r>
      </set>
      <set comment="kpoint 21">
       <r>    3.1943    1.0000 </r>
       <r>    6.6004    1.0000 </r>
       <r>    8.0155    1.0000 </r>
       <r>    8.3045    1.0000 </r>
       <r>    9.2268    1.0000 </r>
       <r>   10.2019    1.0000 </r>
       <r>   26.4540    0.0000 </r>
       <r>   28.4840    0.0000 </r>
       <r>   30.8134    0.0000 </r>
       <r>   31.8975    0.0000 </r>
       <r>   35.6789    0.0000 </r>
       <r>   37.2084    0.0000 </r>
      </set>
      <set comment="kpoint 22">
       <r>    3.1943    1.0000 </r>
       <r>    6.6004    1.0000 </r>
       <r>    8.0155    1.0000 </r>
       <r>    8.3045    1.0000 </r>
       <r>    9.2268    1.0000 </r>
       <r>   10.2019    1.0000 </r>
       <r>   26.4540    0.0000 </r>
       <r>   28.4840    0.0000 </r>
       <r>   30.8134    0.0000 </r>
       <r>   31.8975    0.0000 </r>
       <r>   35.6789    0.0000 </r>
       <r>   37.2084    0.0000 </r>
      </set>
      <set comment="kpoint 23">
       <r>    3.1943    1.0000 </r>
       <r>    6.6004    1.0000 </r>
       <r>    8.0155    1.0000 </r>
       <r>    8.3045    1.0000 </r>
       <r>    9.2268    1.0000 </r>
       <r>   10.2019    1.0000 </r>
       <r>   26.4540    0.0000 </r>
       <r>   28.4840    0.0000 </r>
       <r>   30.8134    0.0000 </r>
       <r>   31.8975    0.0000 </r>
       <r>   35.6789    0.0000 </r>
       <r>   37.2084    0.0000 </r>
      </set>
      <set comment="kpoint 24">
       <r>    3.1943    1.0000 </r>
       <r>    6.6004    1.0000 </r>
       <r>    8.0155    1.0000 </r>
       <r>    8.3045    1.0000 </r>
       <r>    9.2268    1.0000 </r>
       <r>   10.2019    1.0000 </r>
       <r>   26.4540    0.0000 </r>
       <r>   28.4840    0.0000 </r>
       <r>   30.8134    0.0000 </r>
       <r>   31.8975    0.0000 </r>
       <r>   35.6789    0.0000 </r>
       <r>   37.2085    0.0000 </r>
      </set>
      <set comment="kpoint 25">
       <r>    3.1943    1.0000 </r>
       <r>    6.6004    1.0000 </r>
       <r>    8.0155    1.0000 </r>
       <r>    8.3045    1.0000 </r>
       <r>    9.2268    1.0000 </r>
       <r>   10.2019    1.0000 </r>
       <r>   26.4540    0.0000 </r>
       <r>   28.4840    0.0000 </r>
       <r>   30.8134    0.0000 </r>
       <r>   31.8975    0.0000 </r>
       <r>   35.6789    0.0000 </r>
       <r>   37.2084    0.0000 </r>
      </set>
      <set comment="kpoint 26">
       <r>    3.1943    1.0000 </r>
       <r>    6.6004    1.0000 </r>
       <r>    8.0155    1.0000 </r>
       <r>    8.3045    1.0000 </r>
       <r>    9.2268    1.0000 </r>
       <r>   10.2019    1.0000 </r>
       <r>   26.4540    0.0000 </r>
       <r>   28.4840    0.0000 </r>
       <r>   30.8134    0.0000 </r>
       <r>   31.8975    0.0000 </r>
       <r>   35.6789    0.0000 </r>
       <r>   37.2084    0.0000 </r>
      </set>
      <set comment="kpoint 27">
       <r>    3.1943    1.0000 </r>
       <r>    6.6004    1.0000 </r>
       <r>    8.0155    1.0000 </r>
       <r>    8.3045    1.0000 </r>
       <r>    9.2268    1.0000 </r>
       <r>   10.2019    1.0000 </r>
       <r>   26.4540    0.0000 </r>
       <r>   28.4840    0.0000 </r>
       <r>   30.8134    0.0000 </r>
       <r>   31.8975    0.0000 </r>
       <r>   35.6789    0.0000 </r>
       <r>   37.2085    0.0000 </r>
      </set>
      <set comment="kpoint 28">
       <r>    3.1943    1.0000 </r>
       <r>    6.6004    1.0000 </r>
       <r>    8.0155    1.0000 </r>
       <r>    8.3045    1.0000 </r>
       <r>    9.2268    1.0000 </r>
       <r>   10.2019    1.0000 </r>
       <r>   26.4540    0.0000 </r>
       <r>   28.4840    0.0000 </r>
       <r>   30.8134    0.0000 </r>
       <r>   31.8975    0.0000 </r>
       <r>   35.6789    0.0000 </r>
       <r>   37.2084    0.0000 </r>
      </set>
      <set comment="kpoint 29">
       <r>    3.1943    1.0000 </r>
       <r>    6.6004    1.0000 </r>
       <r>    8.0155    1.0000 </r>
       <r>    8.3045    1.0000 </r>
       <r>    9.2268    1.0000 </r>
       <r>   10.2019    1.0000 </r>
       <r>   26.4540    0.0000 </r>
       <r>   28.4840    0.0000 </r>
       <r>   30.8134    0.0000 </r>
       <r>   31.8975    0.0000 </r>
       <r>   35.6789    0.0000 </r>
       <r>   37.2084    0.0000 </r>
      </set>
      <set comment="kpoint 30">
       <r>    3.1943    1.0000 </r>
       <r>    6.6004    1.0000 </r>
       <r>    8.0155    1.0000 </r>
       <r>    8.3045    1.0000 </r>
       <r>    9.2268    1.0000 </r>
       <r>   10.2019    1.0000 </r>
       <r>   26.4540    0.0000 </r>
       <r>   28.4840    0.0000 </r>
       <r>   30.8134    0.0000 </r>
       <r>   31.8975    0.0000 </r>
       <r>   35.6789    0.0000 </r>
       <r>   37.2084    0.0000 </r>
      </set>
      <set comment="kpoint 31">
       <r>    3.1943    1.0000 </r>
       <r>    6.6004    1.0000 </r>
       <r>    8.0155    1.0000 </r>
       <r>    8.3045    1.0000 </r>
       <r>    9.2268    1.0000 </r>
       <r>   10.2019    1.0000 </r>
       <r>   26.4540    0.0000 </r>
       <r>   28.4840    0.0000 </r>
       <r>   30.8134    0.0000 </r>
       <r>   31.8975    0.0000 </r>
       <r>   35.6789    0.0000 </r>
       <r>   37.2084    0.0000 </r>
      </set>
      <set comment="kpoint 32">
       <r>    3.1943    1.0000 </r>
       <r>    6.6004    1.0000 </r>
       <r>    8.0155    1.0000 </r>
       <r>    8.3045    1.0000 </r>
       <r>    9.2268    1.0000 </r>
       <r>   10.2019    1.0000 </r>
       <r>   26.4540    0.0000 </r>
       <r>   28.4840    0.0000 </r>
       <r>   30.8134    0.0000 </r>
       <r>   31.8975    0.0000 </r>
       <r>   35.6789    0.0000 </r>
       <r>   37.2084    0.0000 </r>
      </set>
      <set comment="kpoint 33">
       <r>    4.3312    1.0000 </r>
       <r>    7.1502    1.0000 </r>
       <r>    7.4483    1.0000 </r>
       <r>    8.1619    1.0000 </r>
       <r>   10.8828    1.0000 </r>
       <r>   10.9858    1.0000 </r>
       <r>   21.8207    0.0000 </r>
       <r>   27.3597    0.0000 </r>
       <r>   29.8938    0.0000 </r>
       <r>   31.6024    0.0000 </r>
       <r>   37.3001    0.0000 </r>
       <r>   37.4864    0.0000 </r>
      </set>
      <set comment="kpoint 34">
       <r>    4.3312    1.0000 </r>
       <r>    7.1502    1.0000 </r>
       <r>    7.4483    1.0000 </r>
       <r>    8.1619    1.0000 </r>
       <r>   10.8828    1.0000 </r>
       <r>   10.9858    1.0000 </r>
       <r>   21.8207    0.0000 </r>
       <r>   27.3597    0.0000 </r>
       <r>   29.8938    0.0000 </r>
       <r>   31.6024    0.0000 </r>
       <r>   37.3001    0.0000 </r>
       <r>   37.4863    0.0000 </r>
      </set>
      <set comment="kpoint 35">
       <r>    4.3312    1.0000 </r>
       <r>    7.1502    1.0000 </r>
       <r>    7.4483    1.0000 </r>
       <r>    8.1619    1.0000 </r>
       <r>   10.8828    1.0000 </r>
       <r>   10.9858    1.0000 </r>
       <r>   21.8207    0.0000 </r>
       <r>   27.3597    0.0000 </r>
       <r>   29.8938    0.0000 </r>
       <r>   31.6024    0.0000 </r>
       <r>   37.3001    0.0000 </r>
       <r>   37.4863    0.0000 </r>
      </set>
      <set comment="kpoint 36">
       <r>    4.3312    1.0000 </r>
       <r>    7.1502    1.0000 </r>
       <r>    7.4483    1.0000 </r>
       <r>    8.1619    1.0000 </r>
       <r>   10.8828    1.0000 </r>
       <r>   10.9858    1.0000 </r>
       <r>   21.8207    0.0000 </r>
       <r>   27.3597    0.0000 </r>
       <r>   29.8938    0.0000 </r>
       <r>   31.6024    0.0000 </r>
       <r>   37.3001    0.0000 </r>
       <r>   37.4863    0.0000 </r>
      </set>
      <set comment="kpoint 37">
       <r>    4.3312    1.0000 </r>
       <r>    7.1502    1.0000 </r>
       <r>    7.4483    1.0000 </r>
       <r>    8.1619    1.0000 </r>
       <r>   10.8828    1.0000 </r>
       <r>   10.9858    1.0000 </r>
       <r>   21.8207    0.0000 </r>
       <r>   27.3597    0.0000 </r>
       <r>   29.8937    0.0000 </r>
       <r>   31.6024    0.0000 </r>
       <r>   37.3001    0.0000 </r>
       <r>   37.4863    0.0000 </r>
      </set>
      <set comment="kpoint 38">
       <r>    4.3312    1.0000 </r>
       <r>    7.1502    1.0000 </r>
       <r>    7.4483    1.0000 </r>
       <r>    8.1619    1.0000 </r>
       <r>   10.8828    1.0000 </r>
       <r>   10.9858    1.0000 </r>
       <r>   21.8207    0.0000 </r>
       <r>   27.3597    0.0000 </r>
       <r>   29.8938    0.0000 </r>
       <r>   31.6024    0.0000 </r>
       <r>   37.3001    0.0000 </r>
       <r>   37.4863    0.0000 </r>
      </set>
      <set comment="kpoint 39">
       <r>    4.3312    1.0000 </r>
       <r>    7.1502    1.0000 </r>
       <r>    7.4483    1.0000 </r>
       <r>    8.1619    1.0000 </r>
       <r>   10.8828    1.0000 </r>
       <r>   10.9858    1.0000 </r>
       <r>   21.8207    0.0000 </r>
       <r>   27.3597    0.0000 </r>
       <r>   29.8938    0.0000 </r>
       <r>   31.6024    0.0000 </r>
       <r>   37.3001    0.0000 </r>
       <r>   37.4863    0.0000 </r>
      </set>
      <set comment="kpoint 40">
       <r>    4.3312    1.0000 </r>
       <r>    7.1502    1.0000 </r>
       <r>    7.4483    1.0000 </r>
       <r>    8.1619    1.0000 </r>
       <r>   10.8828    1.0000 </r>
       <r>   10.9858    1.0000 </r>
       <r>   21.8207    0.0000 </r>
       <r>   27.3597    0.0000 </r>
       <r>   29.8937    0.0000 </r>
       <r>   31.6024    0.0000 </r>
       <r>   37.3001    0.0000 </r>
       <r>   37.4863    0.0000 </r>
      </set>
      <set comment="kpoint 41">
       <r>    4.3312    1.0000 </r>
       <r>    7.1502    1.0000 </r>
       <r>    7.4483    1.0000 </r>
       <r>    8.1619    1.0000 </r>
       <r>   10.8828    1.0000 </r>
       <r>   10.9858    1.0000 </r>
       <r>   21.8207    0.0000 </r>
       <r>   27.3597    0.0000 </r>
       <r>   29.8938    0.0000 </r>
       <r>   31.6024    0.0000 </r>
       <r>   37.3001    0.0000 </r>
       <r>   37.4864    0.0000 </r>
      </set>
      <set comment="kpoint 42">
       <r>    4.3312    1.0000 </r>
       <r>    7.1502    1.0000 </r>
       <r>    7.4483    1.0000 </r>
       <r>    8.1619    1.0000 </r>
       <r>   10.8828    1.0000 </r>
       <r>   10.9858    1.0000 </r>
       <r>   21.8207    0.0000 </r>
       <r>   27.3597    0.0000 </r>
       <r>   29.8938    0.0000 </r>
       <r>   31.6024    0.0000 </r>
       <r>   37.3001    0.0000 </r>
       <r>   37.4863    0.0000 </r>
      </set>
      <set comment="kpoint 43">
       <r>    4.3312    1.0000 </r>
       <r>    7.1502    1.0000 </r>
       <r>    7.4483    1.0000 </r>
       <r>    8.1619    1.0000 </r>
       <r>   10.8828    1.0000 </r>
       <r>   10.9858    1.0000 </r>
       <r>   21.8207    0.0000 </r>
       <r>   27.3597    0.0000 </r>
       <r>   29.8937    0.0000 </r>
       <r>   31.6024    0.0000 </r>
       <r>   37.3001    0.0000 </r>
       <r>   37.4863    0.0000 </r>
      </set>
      <set comment="kpoint 44">
       <r>    4.3312    1.0000 </r>
       <r>    7.1502    1.0000 </r>
       <r>    7.4483    1.0000 </r>
       <r>    8.1619    1.0000 </r>
       <r>   10.8828    1.0000 </r>
       <r>   10.9858    1.0000 </r>
       <r>   21.8207    0.0000 </r>
       <r>   27.3597    0.0000 </r>
       <r>   29.8938    0.0000 </r>
       <r>   31.6024    0.0000 </r>
       <r>   37.3001    0.0000 </r>
       <r>   37.4863    0.0000 </r>
      </set>
      <set comment="kpoint 45">
       <r>    4.4797    1.0000 </r>
       <r>    7.0925    1.0000 </r>
       <r>    7.8946    1.0000 </r>
       <r>    8.7650    1.0000 </r>
       <r>   11.3567    0.0112 </r>
       <r>   13.2679    0.0000 </r>
       <r>   17.4845    0.0000 </r>
       <r>   26.3247    0.0000 </r>
       <r>   29.3993    0.0000 </r>
       <r>   29.4489    0.0000 </r>
       <r>   38.8242    0.0000 </r>
       <r>   39.7904    0.0000 </r>
      </set>
      <set comment="kpoint 46">
       <r>    4.4797    1.0000 </r>
       <r>    7.0925    1.0000 </r>
       <r>    7.8946    1.0000 </r>
       <r>    8.7650    1.0000 </r>
       <r>   11.3567    0.0112 </r>
       <r>   13.2679    0.0000 </r>
       <r>   17.4845    0.0000 </r>
       <r>   26.3247    0.0000 </r>
       <r>   29.3993    0.0000 </r>
       <r>   29.4489    0.0000 </r>
       <r>   38.8242    0.0000 </r>
       <r>   39.7904    0.0000 </r>
      </set>
      <set comment="kpoint 47">
       <r>    4.4797    1.0000 </r>
       <r>    7.0925    1.0000 </r>
       <r>    7.8946    1.0000 </r>
       <r>    8.7650    1.0000 </r>
       <r>   11.3567    0.0112 </r>
       <r>   13.2679    0.0000 </r>
       <r>   17.4845    0.0000 </r>
       <r>   26.3247    0.0000 </r>
       <r>   29.3993    0.0000 </r>
       <r>   29.4489    0.0000 </r>
       <r>   38.8242    0.0000 </r>
       <r>   39.7904    0.0000 </r>
      </set>
      <set comment="kpoint 48">
       <r>    4.4797    1.0000 </r>
       <r>    7.0925    1.0000 </r>
       <r>    7.8946    1.0000 </r>
       <r>    8.7650    1.0000 </r>
       <r>   11.3567    0.0112 </r>
       <r>   13.2679    0.0000 </r>
       <r>   17.4845    0.0000 </r>
       <r>   26.3247    0.0000 </r>
       <r>   29.3993    0.0000 </r>
       <r>   29.4490    0.0000 </r>
       <r>   38.8242    0.0000 </r>
       <r>   39.7904    0.0000 </r>
      </set>
      <set comment="kpoint 49">
       <r>    4.4797    1.0000 </r>
       <r>    7.0925    1.0000 </r>
       <r>    7.8946    1.0000 </r>
       <r>    8.7650    1.0000 </r>
       <r>   11.3567    0.0112 </r>
       <r>   13.2679    0.0000 </r>
       <r>   17.4845    0.0000 </r>
       <r>   26.3247    0.0000 </r>
       <r>   29.3993    0.0000 </r>
       <r>   29.4489    0.0000 </r>
       <r>   38.8242    0.0000 </r>
       <r>   39.7904    0.0000 </r>
      </set>
      <set comment="kpoint 50">
       <r>    4.4797    1.0000 </r>
       <r>    7.0925    1.0000 </r>
       <r>    7.8946    1.0000 </r>
       <r>    8.7650    1.0000 </r>
       <r>   11.3567    0.0112 </r>
       <r>   13.2679    0.0000 </r>
       <r>   17.4845    0.0000 </r>
       <r>   26.3247    0.0000 </r>
       <r>   29.3993    0.0000 </r>
       <r>   29.4489    0.0000 </r>
       <r>   38.8242    0.0000 </r>
       <r>   39.7904    0.0000 </r>
      </set>
      <set comment="kpoint 51">
       <r>    4.4797    1.0000 </r>
       <r>    7.0925    1.0000 </r>
       <r>    7.8946    1.0000 </r>
       <r>    8.7650    1.0000 </r>
       <r>   11.3567    0.0112 </r>
       <r>   13.2679    0.0000 </r>
       <r>   17.4845    0.0000 </r>
       <r>   26.3247    0.0000 </r>
       <r>   29.3993    0.0000 </r>
       <r>   29.4490    0.0000 </r>
       <r>   38.8242    0.0000 </r>
       <r>   39.7904    0.0000 </r>
      </set>
      <set comment="kpoint 52">
       <r>    4.4797    1.0000 </r>
       <r>    7.0925    1.0000 </r>
       <r>    7.8946    1.0000 </r>
       <r>    8.7650    1.0000 </r>
       <r>   11.3567    0.0112 </r>
       <r>   13.2679    0.0000 </r>
       <r>   17.4845    0.0000 </r>
       <r>   26.3247    0.0000 </r>
       <r>   29.3993    0.0000 </r>
       <r>   29.4489    0.0000 </r>
       <r>   38.8242    0.0000 </r>
       <r>   39.7904    0.0000 </r>
      </set>
      <set comment="kpoint 53">
       <r>    4.4797    1.0000 </r>
       <r>    7.0925    1.0000 </r>
       <r>    7.8946    1.0000 </r>
       <r>    8.7650    1.0000 </r>
       <r>   11.3567    0.0112 </r>
       <r>   13.2679    0.0000 </r>
       <r>   17.4845    0.0000 </r>
       <r>   26.3247    0.0000 </r>
       <r>   29.3993    0.0000 </r>
       <r>   29.4489    0.0000 </r>
       <r>   38.8242    0.0000 </r>
       <r>   39.7904    0.0000 </r>
      </set>
      <set comment="kpoint 54">
       <r>    4.4797    1.0000 </r>
       <r>    7.0925    1.0000 </r>
       <r>    7.8946    1.0000 </r>
       <r>    8.7650    1.0000 </r>
       <r>   11.3567    0.0112 </r>
       <r>   13.2679    0.0000 </r>
       <r>   17.4845    0.0000 </r>
       <r>   26.3247    0.0000 </r>
       <r>   29.3993    0.0000 </r>
       <r>   29.4490    0.0000 </r>
       <r>   38.8242    0.0000 </r>
       <r>   39.7904    0.0000 </r>
      </set>
      <set comment="kpoint 55">
       <r>    4.4797    1.0000 </r>
       <r>    7.0925    1.0000 </r>
       <r>    7.8946    1.0000 </r>
       <r>    8.7650    1.0000 </r>
       <r>   11.3567    0.0112 </r>
       <r>   13.2679    0.0000 </r>
       <r>   17.4845    0.0000 </r>
       <r>   26.3247    0.0000 </r>
       <r>   29.3993    0.0000 </r>
       <r>   29.4489    0.0000 </r>
       <r>   38.8242    0.0000 </r>
       <r>   39.7904    0.0000 </r>
      </set>
      <set comment="kpoint 56">
       <r>    4.4797    1.0000 </r>
       <r>    7.0925    1.0000 </r>
       <r>    7.8946    1.0000 </r>
       <r>    8.7650    1.0000 </r>
       <r>   11.3567    0.0112 </r>
       <r>   13.2679    0.0000 </r>
       <r>   17.4845    0.0000 </r>
       <r>   26.3247    0.0000 </r>
       <r>   29.3993    0.0000 </r>
       <r>   29.4490    0.0000 </r>
       <r>   38.8242    0.0000 </r>
       <r>   39.7904    0.0000 </r>
      </set>
      <set comment="kpoint 57">
       <r>    4.5134    1.0000 </r>
       <r>    7.2090    1.0000 </r>
       <r>    7.8856    1.0000 </r>
       <r>    8.5285    1.0000 </r>
       <r>   10.6441    1.0000 </r>
       <r>   12.8277    0.0000 </r>
       <r>   18.8323    0.0000 </r>
       <r>   26.4563    0.0000 </r>
       <r>   28.5431    0.0000 </r>
       <r>   31.3798    0.0000 </r>
       <r>   36.9754    0.0000 </r>
       <r>   39.4896    0.0000 </r>
      </set>
      <set comment="kpoint 58">
       <r>    4.5134    1.0000 </r>
       <r>    7.2090    1.0000 </r>
       <r>    7.8856    1.0000 </r>
       <r>    8.5285    1.0000 </r>
       <r>   10.6441    1.0000 </r>
       <r>   12.8277    0.0000 </r>
       <r>   18.8323    0.0000 </r>
       <r>   26.4563    0.0000 </r>
       <r>   28.5431    0.0000 </r>
       <r>   31.3798    0.0000 </r>
       <r>   36.9754    0.0000 </r>
       <r>   39.4896    0.0000 </r>
      </set>
      <set comment="kpoint 59">
       <r>    4.5134    1.0000 </r>
       <r>    7.2090    1.0000 </r>
       <r>    7.8856    1.0000 </r>
       <r>    8.5285    1.0000 </r>
       <r>   10.6441    1.0000 </r>
       <r>   12.8277    0.0000 </r>
       <r>   18.8323    0.0000 </r>
       <r>   26.4563    0.0000 </r>
       <r>   28.5431    0.0000 </r>
       <r>   31.3798    0.0000 </r>
       <r>   36.9754    0.0000 </r>
       <r>   39.4896    0.0000 </r>
      </set>
      <set comment="kpoint 60">
       <r>    4.5134    1.0000 </r>
       <r>    7.2090    1.0000 </r>
       <r>    7.8856    1.0000 </r>
       <r>    8.5285    1.0000 </r>
       <r>   10.6441    1.0000 </r>
       <r>   12.8277    0.0000 </r>
       <r>   18.8323    0.0000 </r>
       <r>   26.4563    0.0000 </r>
       <r>   28.5431    0.0000 </r>
       <r>   31.3798    0.0000 </r>
       <r>   36.9754    0.0000 </r>
       <r>   39.4896    0.0000 </r>
      </set>
      <set comment="kpoint 61">
       <r>    4.5134    1.0000 </r>
       <r>    7.2090    1.0000 </r>
       <r>    7.8856    1.0000 </r>
       <r>    8.5285    1.0000 </r>
       <r>   10.6441    1.0000 </r>
       <r>   12.8277    0.0000 </r>
       <r>   18.8324    0.0000 </r>
       <r>   26.4563    0.0000 </r>
       <r>   28.5431    0.0000 </r>
       <r>   31.3798    0.0000 </r>
       <r>   36.9754    0.0000 </r>
       <r>   39.4896    0.0000 </r>
      </set>
      <set comment="kpoint 62">
       <r>    4.5134    1.0000 </r>
       <r>    7.2090    1.0000 </r>
       <r>    7.8856    1.0000 </r>
       <r>    8.5285    1.0000 </r>
       <r>   10.6441    1.0000 </r>
       <r>   12.8277    0.0000 </r>
       <r>   18.8324    0.0000 </r>
       <r>   26.4563    0.0000 </r>
       <r>   28.5431    0.0000 </r>
       <r>   31.3798    0.0000 </r>
       <r>   36.9754    0.0000 </r>
       <r>   39.4896    0.0000 </r>
      </set>
      <set comment="kpoint 63">
       <r>    4.5134    1.0000 </r>
       <r>    7.2090    1.0000 </r>
       <r>    7.8856    1.0000 </r>
       <r>    8.5285    1.0000 </r>
       <r>   10.6441    1.0000 </r>
       <r>   12.8277    0.0000 </r>
       <r>   18.8323    0.0000 </r>
       <r>   26.4563    0.0000 </r>
       <r>   28.5431    0.0000 </r>
       <r>   31.3798    0.0000 </r>
       <r>   36.9754    0.0000 </r>
       <r>   39.4896    0.0000 </r>
      </set>
      <set comment="kpoint 64">
       <r>    4.5134    1.0000 </r>
       <r>    7.2090    1.0000 </r>
       <r>    7.8856    1.0000 </r>
       <r>    8.5285    1.0000 </r>
       <r>   10.6441    1.0000 </r>
       <r>   12.8277    0.0000 </r>
       <r>   18.8324    0.0000 </r>
       <r>   26.4563    0.0000 </r>
       <r>   28.5431    0.0000 </r>
       <r>   31.3798    0.0000 </r>
       <r>   36.9754    0.0000 </r>
       <r>   39.4896    0.0000 </r>
      </set>
      <set comment="kpoint 65">
       <r>    4.5134    1.0000 </r>
       <r>    7.2090    1.0000 </r>
       <r>    7.8856    1.0000 </r>
       <r>    8.5285    1.0000 </r>
       <r>   10.6441    1.0000 </r>
       <r>   12.8277    0.0000 </r>
       <r>   18.8323    0.0000 </r>
       <r>   26.4563    0.0000 </r>
       <r>   28.5431    0.0000 </r>
       <r>   31.3798    0.0000 </r>
       <r>   36.9754    0.0000 </r>
       <r>   39.4896    0.0000 </r>
      </set>
      <set comment="kpoint 66">
       <r>    4.5134    1.0000 </r>
       <r>    7.2090    1.0000 </r>
       <r>    7.8856    1.0000 </r>
       <r>    8.5285    1.0000 </r>
       <r>   10.6441    1.0000 </r>
       <r>   12.8277    0.0000 </r>
       <r>   18.8323    0.0000 </r>
       <r>   26.4563    0.0000 </r>
       <r>   28.5431    0.0000 </r>
       <r>   31.3798    0.0000 </r>
       <r>   36.9754    0.0000 </r>
       <r>   39.4896    0.0000 </r>
      </set>
      <set comment="kpoint 67">
       <r>    4.5134    1.0000 </r>
       <r>    7.2090    1.0000 </r>
       <r>    7.8856    1.0000 </r>
       <r>    8.5285    1.0000 </r>
       <r>   10.6441    1.0000 </r>
       <r>   12.8277    0.0000 </r>
       <r>   18.8324    0.0000 </r>
       <r>   26.4563    0.0000 </r>
       <r>   28.5431    0.0000 </r>
       <r>   31.3798    0.0000 </r>
       <r>   36.9754    0.0000 </r>
       <r>   39.4896    0.0000 </r>
      </set>
      <set comment="kpoint 68">
       <r>    4.5134    1.0000 </r>
       <r>    7.2090    1.0000 </r>
       <r>    7.8856    1.0000 </r>
       <r>    8.5285    1.0000 </r>
       <r>   10.6441    1.0000 </r>
       <r>   12.8277    0.0000 </r>
       <r>   18.8323    0.0000 </r>
       <r>   26.4563    0.0000 </r>
       <r>   28.5431    0.0000 </r>
       <r>   31.3798    0.0000 </r>
       <r>   36.9754    0.0000 </r>
       <r>   39.4896    0.0000 </r>
      </set>
      <set comment="kpoint 69">
       <r>    4.1288    1.0000 </r>
       <r>    6.9334    1.0000 </r>
       <r>    7.6872    1.0000 </r>
       <r>    8.1820    1.0000 </r>
       <r>    9.4244    1.0000 </r>
       <r>   11.2583    0.6903 </r>
       <r>   23.4445    0.0000 </r>
       <r>   27.5370    0.0000 </r>
       <r>   29.9033    0.0000 </r>
       <r>   33.0419    0.0000 </r>
       <r>   35.2705    0.0000 </r>
       <r>   37.9544    0.0000 </r>
      </set>
      <set comment="kpoint 70">
       <r>    4.1288    1.0000 </r>
       <r>    6.9334    1.0000 </r>
       <r>    7.6872    1.0000 </r>
       <r>    8.1820    1.0000 </r>
       <r>    9.4244    1.0000 </r>
       <r>   11.2584    0.6903 </r>
       <r>   23.4445    0.0000 </r>
       <r>   27.5370    0.0000 </r>
       <r>   29.9033    0.0000 </r>
       <r>   33.0419    0.0000 </r>
       <r>   35.2705    0.0000 </r>
       <r>   37.9544    0.0000 </r>
      </set>
      <set comment="kpoint 71">
       <r>    4.1288    1.0000 </r>
       <r>    6.9334    1.0000 </r>
       <r>    7.6872    1.0000 </r>
       <r>    8.1820    1.0000 </r>
       <r>    9.4244    1.0000 </r>
       <r>   11.2583    0.6903 </r>
       <r>   23.4445    0.0000 </r>
       <r>   27.5370    0.0000 </r>
       <r>   29.9033    0.0000 </r>
       <r>   33.0419    0.0000 </r>
       <r>   35.2705    0.0000 </r>
       <r>   37.9544    0.0000 </r>
      </set>
      <set comment="kpoint 72">
       <r>    4.1288    1.0000 </r>
       <r>    6.9334    1.0000 </r>
       <r>    7.6872    1.0000 </r>
       <r>    8.1820    1.0000 </r>
       <r>    9.4244    1.0000 </r>
[...]
       </set>
       <set comment="band 5">
        <r>  0.0000  0.0038  0.0056  0.0019  0.0027  0.1396  0.0907  0.2792  0.4464 </r>
       </set>
       <set comment="band 6">
        <r>  0.3473  0.0133  0.0165  0.1487  0.0075  0.0198  0.0169  0.1307  0.1849 </r>
       </set>
       <set comment="band 7">
        <r>  0.2679  0.0013  0.0681  0.2523  0.0184  0.1107  0.0087  0.0892  0.0106 </r>
       </set>
       <set comment="band 8">
        <r>  0.0000  0.2025  0.3037  0.1012  0.0929  0.0197  0.1690  0.0394  0.0226 </r>
       </set>
       <set comment="band 9">
        <r>  0.0172  0.2370  0.0629  0.0645  0.2682  0.0355  0.0765  0.0122  0.0008 </r>
       </set>
       <set comment="band 10">
        <r>  0.0002  0.1309  0.1067  0.0029  0.0000  0.0977  0.0026  0.0062  0.0677 </r>
       </set>
       <set comment="band 11">
        <r>  0.0000  0.0066  0.0099  0.0033  0.0577  0.0008  0.2231  0.0017  0.0192 </r>
       </set>
       <set comment="band 12">
        <r>  0.0000  0.0047  0.0069  0.0024  0.0126  0.0100  0.0971  0.0200  0.0495 </r>
       </set>
      </set>
      <set comment="kpoint 250">
       <set comment="band 1">
        <r>  0.0225  0.0164  0.0029  0.0082  0.6925  0.0424  0.0163  0.0212  0.0866 </r>
       </set>
       <set comment="band 2">
        <r>  0.0854  0.0014  0.1601  0.0007  0.0001  0.0795  0.5216  0.0398  0.0000 </r>
       </set>
       <set comment="band 3">
        <r>  0.0000  0.0386  0.0000  0.0772  0.0185  0.2162  0.0000  0.4324  0.1478 </r>
       </set>
       <set comment="band 4">
        <r>  0.0071  0.0081  0.0199  0.0040  0.0694  0.4736  0.1158  0.2368  0.0087 </r>
       </set>
       <set comment="band 5">
        <r>  0.0000  0.0038  0.0000  0.0075  0.0886  0.0537  0.0000  0.1073  0.7089 </r>
       </set>
       <set comment="band 6">
        <r>  0.3473  0.0133  0.1585  0.0067  0.0062  0.0212  0.3211  0.0106  0.0008 </r>
       </set>
       <set comment="band 7">
        <r>  0.2679  0.0013  0.3198  0.0006  0.1266  0.0024  0.0915  0.0012  0.0158 </r>
       </set>
       <set comment="band 8">
        <r>  0.0000  0.2025  0.0000  0.4049  0.0009  0.1117  0.0000  0.2234  0.0076 </r>
       </set>
       <set comment="band 9">
        <r>  0.0172  0.2370  0.0089  0.1185  0.1781  0.1255  0.0044  0.0628  0.0223 </r>
       </set>
       <set comment="band 10">
        <r>  0.0002  0.1309  0.0442  0.0655  0.0728  0.0250  0.0549  0.0125  0.0091 </r>
       </set>
       <set comment="band 11">
        <r>  0.0000  0.0066  0.0000  0.0132  0.0211  0.0374  0.0000  0.0749  0.1691 </r>
       </set>
       <set comment="band 12">
        <r>  0.0000  0.0047  0.0000  0.0093  0.0203  0.0022  0.0000  0.0044  0.1622 </r>
       </set>
      </set>
      <set comment="kpoint 251">
       <set comment="band 1">
        <r>  0.0225  0.0019  0.0246  0.0010  0.0973  0.0424  0.6858  0.0212  0.0122 </r>
       </set>
       <set comment="band 2">
        <r>  0.0854  0.1067  0.0021  0.0534  0.3533  0.0795  0.1242  0.0398  0.0442 </r>
       </set>
       <set comment="band 3">
        <r>  0.0000  0.0386  0.0000  0.0772  0.0721  0.0554  0.0000  0.1109  0.5766 </r>
       </set>
       <set comment="band 4">
        <r>  0.0071  0.0133  0.0121  0.0066  0.1677  0.4736  0.0052  0.2368  0.0210 </r>
       </set>
       <set comment="band 5">
        <r>  0.0000  0.0038  0.0000  0.0075  0.0179  0.2658  0.0000  0.5317  0.1431 </r>
       </set>
       <set comment="band 6">
        <r>  0.3473  0.1056  0.0200  0.0528  0.1793  0.0212  0.1264  0.0106  0.0224 </r>
       </set>
       <set comment="band 7">
        <r>  0.2679  0.2132  0.0019  0.1066  0.1805  0.0024  0.0309  0.0012  0.0226 </r>
       </set>
       <set comment="band 8">
        <r>  0.0000  0.2025  0.0000  0.4049  0.0372  0.0028  0.0000  0.0057  0.2978 </r>
       </set>
       <set comment="band 9">
        <r>  0.0172  0.0059  0.3555  0.0030  0.0246  0.1255  0.1771  0.0628  0.0031 </r>
       </set>
       <set comment="band 10">
        <r>  0.0002  0.0295  0.1964  0.0147  0.0032  0.0250  0.1332  0.0125  0.0004 </r>
       </set>
       <set comment="band 11">
        <r>  0.0000  0.0066  0.0000  0.0132  0.0125  0.0634  0.0000  0.1268  0.0999 </r>
       </set>
       <set comment="band 12">
        <r>  0.0000  0.0046  0.0000  0.0093  0.0008  0.0608  0.0000  0.1216  0.0059 </r>
       </set>
      </set>
      <set comment="kpoint 252">
       <set comment="band 1">
        <r>  0.0569  0.0087  0.0131  0.0044  0.5262  0.0039  0.1973  0.0020  0.0658 </r>
       </set>
       <set comment="band 2">
        <r>  0.0000  0.0107  0.0161  0.0054  0.2029  0.0000  0.6848  0.0000  0.0254 </r>
       </set>
       <set comment="band 3">
        <r>  0.0000  0.0689  0.0000  0.1379  0.0399  0.1196  0.0000  0.2392  0.3189 </r>
       </set>
       <set comment="band 4">
        <r>  0.0134  0.0050  0.0075  0.0025  0.0039  0.6163  0.0015  0.3081  0.0005 </r>
       </set>
       <set comment="band 5">
        <r>  0.0000  0.0000  0.0000  0.0000  0.0549  0.1648  0.0000  0.3296  0.4395 </r>
       </set>
       <set comment="band 6">
        <r>  0.0000  0.2027  0.0000  0.4053  0.0169  0.0507  0.0000  0.1014  0.1352 </r>
       </set>
       <set comment="band 7">
        <r>  0.6436  0.0126  0.0189  0.0063  0.0792  0.0234  0.0297  0.0117  0.0099 </r>
       </set>
       <set comment="band 8">
        <r>  0.0000  0.2246  0.3369  0.1123  0.0221  0.0000  0.0745  0.0000  0.0028 </r>
       </set>
       <set comment="band 9">
        <r>  0.0104  0.1460  0.2189  0.0730  0.2076  0.0407  0.0778  0.0203  0.0259 </r>
       </set>
       <set comment="band 10">
        <r>  0.1524  0.0550  0.0825  0.0275  0.1830  0.0053  0.0686  0.0026  0.0229 </r>
       </set>
       <set comment="band 11">
        <r>  0.0000  0.0003  0.0004  0.0001  0.1995  0.0000  0.6733  0.0000  0.0249 </r>
       </set>
       <set comment="band 12">
        <r>  0.0000  0.0014  0.0000  0.0028  0.0079  0.0238  0.0000  0.0476  0.0635 </r>
       </set>
      </set>
      <set comment="kpoint 253">
       <set comment="band 1">
        <r>  0.0569  0.0087  0.0000  0.0174  0.0950  0.4351  0.0356  0.2176  0.0119 </r>
       </set>
       <set comment="band 2">
        <r>  0.0000  0.0107  0.0161  0.0054  0.0507  0.1522  0.0000  0.3043  0.4058 </r>
       </set>
       <set comment="band 3">
        <r>  0.0000  0.0689  0.1034  0.0345  0.0399  0.1196  0.0000  0.2392  0.3189 </r>
       </set>
       <set comment="band 4">
        <r>  0.0134  0.0050  0.0000  0.0101  0.5057  0.1145  0.1896  0.0572  0.0632 </r>
       </set>
       <set comment="band 5">
        <r>  0.0000  0.0000  0.0000  0.0000  0.2197  0.0000  0.7416  0.0000  0.0275 </r>
       </set>
       <set comment="band 6">
        <r>  0.0000  0.2027  0.3040  0.1013  0.0169  0.0507  0.0000  0.1014  0.1352 </r>
       </set>
       <set comment="band 7">
        <r>  0.6436  0.0126  0.0000  0.0252  0.0746  0.0280  0.0280  0.0140  0.0093 </r>
       </set>
       <set comment="band 8">
        <r>  0.0000  0.2246  0.3369  0.1123  0.0055  0.0166  0.0000  0.0331  0.0441 </r>
       </set>
       <set comment="band 9">
        <r>  0.0104  0.1460  0.0000  0.2920  0.0028  0.2454  0.0011  0.1227  0.0004 </r>
       </set>
       <set comment="band 10">
        <r>  0.1524  0.0550  0.0000  0.1101  0.0766  0.1117  0.0287  0.0558  0.0096 </r>
       </set>
       <set comment="band 11">
        <r>  0.0000  0.0003  0.0004  0.0001  0.0499  0.1496  0.0000  0.2992  0.3990 </r>
       </set>
       <set comment="band 12">
        <r>  0.0000  0.0014  0.0021  0.0007  0.0079  0.0238  0.0000  0.0476  0.0635 </r>
       </set>
      </set>
      <set comment="kpoint 254">
       <set comment="band 1">
        <r>  0.0569  0.0087  0.0131  0.0044  0.1740  0.3562  0.0652  0.1781  0.0217 </r>
       </set>
       <set comment="band 2">
        <r>  0.0000  0.0107  0.0000  0.0215  0.0507  0.1522  0.0000  0.3044  0.4058 </r>
       </set>
       <set comment="band 3">
        <r>  0.0000  0.0689  0.1034  0.0345  0.1595  0.0000  0.5382  0.0000  0.0199 </r>
       </set>
       <set comment="band 4">
        <r>  0.0134  0.0050  0.0075  0.0025  0.4207  0.1995  0.1578  0.0998  0.0526 </r>
       </set>
       <set comment="band 5">
        <r>  0.0000  0.0000  0.0000  0.0000  0.0549  0.1648  0.0000  0.3296  0.4395 </r>
       </set>
       <set comment="band 6">
        <r>  0.0000  0.2027  0.3040  0.1013  0.0676  0.0000  0.2282  0.0000  0.0085 </r>
       </set>
       <set comment="band 7">
        <r>  0.6436  0.0126  0.0189  0.0063  0.0001  0.1025  0.0000  0.0512  0.0000 </r>
       </set>
       <set comment="band 8">
        <r>  0.0000  0.2246  0.0000  0.4492  0.0055  0.0166  0.0000  0.0331  0.0441 </r>
       </set>
       <set comment="band 9">
        <r>  0.0104  0.1460  0.2190  0.0730  0.1620  0.0863  0.0607  0.0431  0.0202 </r>
       </set>
       <set comment="band 10">
        <r>  0.1524  0.0550  0.0825  0.0275  0.0228  0.1655  0.0086  0.0827  0.0029 </r>
       </set>
       <set comment="band 11">
        <r>  0.0000  0.0003  0.0000  0.0005  0.0499  0.1496  0.0000  0.2992  0.3990 </r>
       </set>
       <set comment="band 12">
        <r>  0.0000  0.0014  0.0021  0.0007  0.0317  0.0000  0.1071  0.0000  0.0040 </r>
       </set>
      </set>
      <set comment="kpoint 255">
       <set comment="band 1">
        <r>  0.0569  0.0087  0.0131  0.0044  0.5262  0.0039  0.1973  0.0020  0.0658 </r>
       </set>
       <set comment="band 2">
        <r>  0.0000  0.0107  0.0161  0.0054  0.2029  0.0000  0.6848  0.0000  0.0254 </r>
       </set>
       <set comment="band 3">
        <r>  0.0000  0.0689  0.0000  0.1379  0.0399  0.1196  0.0000  0.2392  0.3189 </r>
       </set>
       <set comment="band 4">
        <r>  0.0134  0.0050  0.0075  0.0025  0.0039  0.6163  0.0015  0.3081  0.0005 </r>
       </set>
       <set comment="band 5">
        <r>  0.0000  0.0000  0.0000  0.0000  0.0549  0.1648  0.0000  0.3296  0.4395 </r>
       </set>
       <set comment="band 6">
        <r>  0.0000  0.2027  0.0000  0.4053  0.0169  0.0507  0.0000  0.1014  0.1352 </r>
       </set>
       <set comment="band 7">
        <r>  0.6436  0.0126  0.0189  0.0063  0.0792  0.0234  0.0297  0.0117  0.0099 </r>
       </set>
       <set comment="band 8">
        <r>  0.0000  0.2246  0.3369  0.1123  0.0221  0.0000  0.0745  0.0000  0.0028 </r>
       </set>
       <set comment="band 9">
        <r>  0.0104  0.1460  0.2189  0.0730  0.2076  0.0407  0.0778  0.0203  0.0259 </r>
       </set>
       <set comment="band 10">
        <r>  0.1524  0.0550  0.0825  0.0275  0.1830  0.0053  0.0686  0.0026  0.0229 </r>
       </set>
       <set comment="band 11">
        <r>  0.0000  0.0003  0.0004  0.0001  0.1995  0.0000  0.6733  0.0000  0.0249 </r>
       </set>
       <set comment="band 12">
        <r>  0.0000  0.0014  0.0000  0.0028  0.0079  0.0238  0.0000  0.0476  0.0635 </r>
       </set>
      </set>
      <set comment="kpoint 256">
       <set comment="band 1">
        <r>  0.0569  0.0087  0.0000  0.0174  0.0950  0.4351  0.0356  0.2176  0.0119 </r>
       </set>
       <set comment="band 2">
        <r>  0.0000  0.0107  0.0161  0.0054  0.0507  0.1522  0.0000  0.3044  0.4058 </r>
       </set>
       <set comment="band 3">
        <r>  0.0000  0.0689  0.1034  0.0345  0.0399  0.1196  0.0000  0.2392  0.3189 </r>
       </set>
       <set comment="band 4">
        <r>  0.0134  0.0050  0.0000  0.0101  0.5057  0.1145  0.1896  0.0572  0.0632 </r>
       </set>
       <set comment="band 5">
        <r>  0.0000  0.0000  0.0000  0.0000  0.2197  0.0000  0.7416  0.0000  0.0275 </r>
       </set>
       <set comment="band 6">
        <r>  0.0000  0.2027  0.3040  0.1013  0.0169  0.0507  0.0000  0.1014  0.1352 </r>
       </set>
       <set comment="band 7">
        <r>  0.6436  0.0126  0.0000  0.0252  0.0746  0.0280  0.0280  0.0140  0.0093 </r>
       </set>
       <set comment="band 8">
        <r>  0.0000  0.2246  0.3369  0.1123  0.0055  0.0166  0.0000  0.0331  0.0441 </r>
       </set>
       <set comment="band 9">
        <r>  0.0104  0.1460  0.0000  0.2919  0.0028  0.2454  0.0011  0.1227  0.0004 </r>
       </set>
       <set comment="band 10">
        <r>  0.1524  0.0550  0.0000  0.1100  0.0766  0.1117  0.0287  0.0558  0.0096 </r>
       </set>
       <set comment="band 11">
        <r>  0.0000  0.0003  0.0004  0.0001  0.0499  0.1496  0.0000  0.2992  0.3990 </r>
       </set>
       <set comment="band 12">
        <r>  0.0000  0.0014  0.0021  0.0007  0.0079  0.0238  0.0000  0.0476  0.0635 </r>
       </set>
      </set>
      <set comment="kpoint 257">
       <set comment="band 1">
        <r>  0.0569  0.0087  0.0131  0.0044  0.1740  0.3562  0.0652  0.1781  0.0218 </r>
       </set>
       <set comment="band 2">
        <r>  0.0000  0.0107  0.0000  0.0215  0.0507  0.1522  0.0000  0.3043  0.4058 </r>
       </set>
       <set comment="band 3">
        <r>  0.0000  0.0689  0.1034  0.0345  0.1595  0.0000  0.5382  0.0000  0.0199 </r>
       </set>
       <set comment="band 4">
        <r>  0.0134  0.0050  0.0075  0.0025  0.4207  0.1995  0.1578  0.0998  0.0526 </r>
       </set>
       <set comment="band 5">
        <r>  0.0000  0.0000  0.0000  0.0000  0.0549  0.1648  0.0000  0.3296  0.4395 </r>
       </set>
       <set comment="band 6">
        <r>  0.0000  0.2027  0.3040  0.1013  0.0676  0.0000  0.2282  0.0000  0.0085 </r>
       </set>
       <set comment="band 7">
        <r>  0.6436  0.0126  0.0189  0.0063  0.0001  0.1025  0.0000  0.0512  0.0000 </r>
       </set>
       <set comment="band 8">
        <r>  0.0000  0.2246  0.0000  0.4492  0.0055  0.0166  0.0000  0.0331  0.0441 </r>
       </set>
       <set comment="band 9">
        <r>  0.0104  0.1460  0.2190  0.0730  0.1620  0.0863  0.0607  0.0431  0.0202 </r>
       </set>
       <set comment="band 10">
        <r>  0.1524  0.0550  0.0825  0.0275  0.0228  0.1655  0.0086  0.0827  0.0029 </r>
       </set>
       <set comment="band 11">
        <r>  0.0000  0.0003  0.0000  0.0005  0.0499  0.1496  0.0000  0.2992  0.3990 </r>
       </set>
       <set comment="band 12">
        <r>  0.0000  0.0014  0.0021  0.0007  0.0317  0.0000  0.1071  0.0000  0.0040 </r>
       </set>
      </set>
      <set comment="kpoint 258">
       <set comment="band 1">
        <r>  0.0000  0.0243  0.0365  0.0122  0.4016  0.1339  0.1506  0.0669  0.0502 </r>
       </set>
       <set comment="band 2">
        <r>  0.0000  0.0350  0.0577  0.0230  0.1723  0.0004  0.6094  0.0008  0.0320 </r>
       </set>
       <set comment="band 3">
        <r>  0.0000  0.0422  0.0002  0.0735  0.0540  0.1354  0.0018  0.2709  0.3529 </r>
       </set>
       <set comment="band 4">
        <r>  0.0678  0.0000  0.0000  0.0000  0.1437  0.4311  0.0539  0.2155  0.0180 </r>
       </set>
       <set comment="band 5">
        <r>  0.0000  0.0000  0.0000  0.0000  0.0549  0.1648  0.0000  0.3297  0.4396 </r>
       </set>
       <set comment="band 6">
        <r>  0.6729  0.0000  0.0000  0.0000  0.0256  0.0768  0.0096  0.0384  0.0032 </r>
       </set>
       <set comment="band 7">
        <r>  0.0000  0.4335  0.1718  0.0454  0.0639  0.0197  0.0994  0.0395  0.0285 </r>
       </set>
       <set comment="band 8">
        <r>  0.0000  0.0003  0.1535  0.4968  0.0058  0.0221  0.0888  0.0442  0.0901 </r>
       </set>
       <set comment="band 9">
        <r>  0.0000  0.1148  0.1722  0.0574  0.2571  0.0857  0.0964  0.0429  0.0321 </r>
       </set>
       <set comment="band 10">
        <r>  0.0000  0.0050  0.0022  0.0003  0.1159  0.0295  0.1965  0.0590  0.0381 </r>
       </set>
       <set comment="band 11">
        <r>  0.0000  0.0000  0.0015  0.0060  0.0060  0.0437  0.1329  0.0873  0.1692 </r>
       </set>
       <set comment="band 12">
        <r>  0.0000  0.1236  0.1853  0.0618  0.0185  0.0062  0.0069  0.0031  0.0023 </r>
       </set>
      </set>
      <set comment="kpoint 259">
       <set comment="band 1">
        <r>  0.0000  0.0243  0.0000  0.0486  0.0000  0.5355  0.0000  0.2678  0.0000 </r>
       </set>
       <set comment="band 2">
        <r>  0.0000  0.0017  0.1133  0.0008  0.0886  0.0059  0.0000  0.0118  0.7086 </r>
       </set>
       <set comment="band 3">
        <r>  0.0000  0.0755  0.0025  0.0378  0.0020  0.2657  0.0000  0.5315  0.0158 </r>
       </set>
       <set comment="band 4">
        <r>  0.0678  0.0000  0.0000  0.0000  0.5748  0.0000  0.2155  0.0000  0.0718 </r>
       </set>
       <set comment="band 5">
        <r>  0.0000  0.0000  0.0000  0.0000  0.2198  0.0000  0.7417  0.0000  0.0275 </r>
       </set>
       <set comment="band 6">
        <r>  0.6729  0.0000  0.0000  0.0000  0.1024  0.0000  0.0384  0.0000  0.0128 </r>
       </set>
       <set comment="band 7">
        <r>  0.0000  0.0000  0.6507  0.0000  0.0279  0.0000  0.0000  0.0000  0.2231 </r>
       </set>
       <set comment="band 8">
        <r>  0.0000  0.4338  0.0000  0.2169  0.0000  0.0837  0.0000  0.1674  0.0000 </r>
       </set>
       <set comment="band 9">
        <r>  0.0000  0.1148  0.0000  0.2296  0.0000  0.3428  0.0000  0.1714  0.0000 </r>
       </set>
       <set comment="band 10">
        <r>  0.0000  0.0000  0.0075  0.0000  0.0488  0.0001  0.0000  0.0001  0.3902 </r>
       </set>
       <set comment="band 11">
        <r>  0.0000  0.0050  0.0000  0.0025  0.0000  0.1463  0.0000  0.2927  0.0001 </r>
       </set>
       <set comment="band 12">
        <r>  0.0000  0.1236  0.0000  0.2471  0.0000  0.0247  0.0000  0.0123  0.0000 </r>
       </set>
      </set>
      <set comment="kpoint 260">
       <set comment="band 1">
        <r>  0.0000  0.0243  0.0365  0.0122  0.4016  0.1339  0.1506  0.0669  0.0502 </r>
       </set>
       <set comment="band 2">
        <r>  0.0000  0.0005  0.0335  0.0818  0.0345  0.0572  0.3537  0.1145  0.2551 </r>
       </set>
       <set comment="band 3">
        <r>  0.0000  0.0767  0.0244  0.0147  0.1919  0.0786  0.2575  0.1572  0.1297 </r>
       </set>
       <set comment="band 4">
        <r>  0.0678  0.0000  0.0000  0.0000  0.1437  0.4311  0.0539  0.2155  0.0180 </r>
       </set>
       <set comment="band 5">
        <r>  0.0000  0.0000  0.0000  0.0000  0.0549  0.1648  0.0000  0.3297  0.4396 </r>
       </set>
       <set comment="band 6">
        <r>  0.6729  0.0000  0.0000  0.0000  0.0256  0.0768  0.0096  0.0384  0.0032 </r>
       </set>
       <set comment="band 7">
        <r>  0.0000  0.0002  0.1704  0.4801  0.0080  0.0199  0.0986  0.0399  0.0847 </r>
       </set>
       <set comment="band 8">
        <r>  0.0000  0.4336  0.1550  0.0622  0.0617  0.0219  0.0897  0.0438  0.0339 </r>
       </set>
       <set comment="band 9">
        <r>  0.0000  0.1148  0.1722  0.0574  0.2571  0.0857  0.0964  0.0429  0.0321 </r>
       </set>
       <set comment="band 10">
        <r>  0.0000  0.0007  0.0032  0.0036  0.0522  0.0108  0.2808  0.0216  0.0738 </r>
       </set>
       <set comment="band 11">
        <r>  0.0000  0.0043  0.0006  0.0027  0.0698  0.0624  0.0486  0.1248  0.1336 </r>
       </set>
       <set comment="band 12">
        <r>  0.0000  0.1236  0.1853  0.0618  0.0185  0.0062  0.0069  0.0031  0.0023 </r>
       </set>
      </set>
     </set>
    </set>
   </array>
  </projected>
 </calculation>
 <structure name="finalpos" >
  <crystal>
   <varray name="basis" >
    <v>       2.40252100       0.00000000       1.38709600 </v>
    <v>       0.80084000       2.26511800       1.38709600 </v>
    <v>       0.00000000       0.00000000       2.77419200 </v>
   </varray>
   <i name="volume">     15.09713501 </i>
   <varray name="rec_basis" >
    <v>       0.41622945      -0.14715931       0.00000000 </v>
    <v>       0.00000000       0.44147810       0.00000000 </v>
    <v>      -0.20811473      -0.14715940       0.36046532 </v>
   </varray>
  </crystal>
  <varray name="positions" >
   <v>       0.00000000       0.00000000       0.00000000 </v>
  </varray>
 </structure>
</modeling>
