 running on   16 total cores
 distrk:  each k-point on   16 cores,    1 groups
 distr:  one band on    4 cores,    4 groups
 vasp.6.2.0 18Jan21 (build Feb  1 2022 01:28:57) complex                         
 POSCAR found type information on POSCAR Pt
 POSCAR found :  1 types and       1 ions
 scaLAPACK will be used
 -----------------------------------------------------------------------------
|                                                                             |
|               ----> ADVICE to this user running VASP <----                  |
|                                                                             |
|     You enforced a specific xc type in the INCAR file but a different       |
|     type was found in the POTCAR file.                                      |
|     I HOPE YOU KNOW WHAT YOU ARE DOING!                                     |
|                                                                             |
 -----------------------------------------------------------------------------

 LDA part: xc-table for Pade appr. of Perdew
 POSCAR, INCAR and KPOINTS ok, starting setup
 FFT: planning ...
 WAVECAR not read
 entering main loop
       N       E                     dE             d eps       ncg     rms          rms(c)
DAV:   1     0.341032793357E+02    0.34103E+02   -0.45721E+03  6576   0.638E+02
DAV:   2    -0.524643526182E+01   -0.39350E+02   -0.37503E+02  7456   0.152E+02
DAV:   3    -0.576168687445E+01   -0.51525E+00   -0.51237E+00  7656   0.161E+01
DAV:   4    -0.576374811616E+01   -0.20612E-02   -0.20611E-02  7640   0.121E+00
DAV:   5    -0.576376435479E+01   -0.16239E-04   -0.16239E-04  7800   0.968E-02    0.126E+01
DAV:   6    -0.545476827688E+01    0.30900E+00   -0.61227E-01  6800   0.605E+00    0.679E+00
DAV:   7    -0.541430270051E+01    0.40466E-01   -0.14758E-01  7380   0.294E+00    0.242E+00
DAV:   8    -0.541132455603E+01    0.29781E-02   -0.66506E-03  6916   0.648E-01    0.628E-01
DAV:   9    -0.541107063436E+01    0.25392E-03   -0.17155E-04  7172   0.107E-01    0.698E-02
DAV:  10    -0.541107229162E+01   -0.16573E-05   -0.64292E-06  3492   0.205E-02
   1 F= -.54110723E+01 E0= -.54096622E+01  d E =-.282024E-02
