       N       E                     dE             d eps       ncg     rms          rms(c)
DAV:   1     0.318486076116E+02    0.31849E+02   -0.44935E+03  2888   0.626E+02
DAV:   2    -0.535220288634E+01   -0.37201E+02   -0.35466E+02  3200   0.146E+02
DAV:   3    -0.585360964653E+01   -0.50141E+00   -0.50045E+00  3264   0.157E+01
DAV:   4    -0.585575797977E+01   -0.21483E-02   -0.21482E-02  3312   0.123E+00
DAV:   5    -0.585577712851E+01   -0.19149E-04   -0.19148E-04  3360   0.107E-01    0.884E+00
DAV:   6    -0.552934730013E+01    0.32643E+00   -0.77947E-01  2928   0.653E+00    0.475E+00
DAV:   7    -0.550275518082E+01    0.26592E-01   -0.12256E-01  3196   0.247E+00    0.236E+00
DAV:   8    -0.550972828757E+01   -0.69731E-02   -0.82110E-02  2840   0.177E+00    0.146E+00
DAV:   9    -0.549997926809E+01    0.97490E-02   -0.26570E-02  2824   0.118E+00    0.123E-01
DAV:  10    -0.549994601389E+01    0.33254E-04   -0.18929E-04  2864   0.117E-01
   1 F= -.54999460E+01 E0= -.54982912E+01  d E =-.330957E-02
