 vasp.6.2.0 18Jan21 (build Feb  1 2022 01:28:57) complex                         
 executed on             LinuxPGI date 2022.05.18  19:38:03
 running on   16 total cores
 distrk:  each k-point on   16 cores,    1 groups
 distr:  one band on NCORE=   4 cores,    4 groups


--------------------------------------------------------------------------------------------------------


 INCAR:
   ALGO = 38
   EDIFF = 0.0001
   EDIFFG = -0.03
   ENCUT = 420
   GGA = RP
   IBRION = 2
   ISIF = 0
   ISMEAR = 0
   ISPIN = 1
   ISYM = 0
   LASPH = False
   LORBIT = 11
   LREAL = False
   LVTOT = False
   LWAVE = False
   NCORE = 4
   NELM = 60
   NELMIN = 4
   NSW = 0
   PREC = Normal
   SIGMA = 0.05
   SYMPREC = 1e-05

 POTCAR:    PAW_PBE Pt 04Feb2005                  
 POTCAR:    PAW_PBE Pt 04Feb2005                  
   SHA256 =  3ed90460adef76debcff1cfb73ee1349b515b1a3db03439735b44de3a8db7dc8 Pt/POTCAR             
   COPYR  = (c) Copyright 04Feb2005 Georg Kresse                                                    
   COPYR  = This file is part of the software VASP. Any use, copying, and all other rights are regul
   COPYR  = If you do not have a valid VASP license, you may not use, copy or distribute this file. 
   VRHFIN =Pt: s1d9                                                                                 
   LEXCH  = PE                                                                                      
   EATOM  =   729.1176 eV,   53.5886 Ry                                                             
                                                                                                    
   TITEL  = PAW_PBE Pt 04Feb2005                                                                    
   LULTRA =        F    use ultrasoft PP ?                                                          
   IUNSCR =        1    unscreen: 0-lin 1-nonlin 2-no                                               
   RPACOR =    2.330    partial core radius                                                         
   POMASS =  195.080; ZVAL   =   10.000    mass and valenz                                          
   RCORE  =    2.600    outmost cutoff radius                                                       
   RWIGS  =    2.750; RWIGS  =    1.455    wigner-seitz radius (au A)                               
   ENMAX  =  230.283; ENMIN  =  172.712 eV                                                          
   ICORE  =        3    local potential                                                             
   LCOR   =        T    correct aug charges                                                         
   LPAW   =        T    paw PP                                                                      
   EAUG   =  358.966                                                                                
   DEXC   =    0.000                                                                                
   RMAX   =    2.658    core radius for proj-oper                                                   
   RAUG   =    1.300    factor for augmentation sphere                                              
   RDEP   =    2.761    radius for radial grids                                                     
   RDEPT  =    2.203    core radius for aug-charge                                                  
                                                                                                    
   Atomic configuration                                                                             
   16 entries                                                                                       
     n  l   j            E        occ.                                                              
     1  0  0.50    -78401.1885   2.0000                                                             
     2  0  0.50    -13770.7750   2.0000                                                             
     2  1  1.50    -11931.0468   6.0000                                                             
     3  0  0.50     -3234.7234   2.0000                                                             
     3  1  1.50     -2699.2216   6.0000                                                             
     3  2  2.50     -2119.5714  10.0000                                                             
     4  0  0.50      -695.1528   2.0000                                                             
     4  1  1.50      -519.6034   6.0000                                                             
     4  2  2.50      -306.6786  10.0000                                                             
     4  3  3.50       -70.1041  14.0000                                                             
     5  0  0.50      -101.7747   2.0000                                                             
     5  1  1.50       -55.9873   6.0000                                                             
     5  2  2.50        -6.1423   9.0000                                                             
     6  0  0.50        -5.6573   1.0000                                                             
     6  1  1.50        -6.8029   0.0000                                                             
     5  3  2.50        -1.3606   0.0000                                                             
   Description                                                                                      
     l       E           TYP  RCUT    TYP  RCUT                                                     
     2     -6.1423404     23  2.500                                                                 
     2     -7.5029230     23  2.500                                                                 
     0     -5.6573207     23  2.500                                                                 
     0      0.7416693     23  2.500                                                                 
     1     -2.7211652     23  2.600                                                                 
     1     20.4087390     23  2.600                                                                 
     3     -1.3605826     23  2.500                                                                 
  local pseudopotential read in
  partial core-charges read in
  partial kinetic energy density read in
  atomic valenz-charges read in
  non local Contribution for L=            2  read in
    real space projection operators read in
  non local Contribution for L=            2  read in
    real space projection operators read in
  non local Contribution for L=            0  read in
    real space projection operators read in
  non local Contribution for L=            0  read in
    real space projection operators read in
  non local Contribution for L=            1  read in
    real space projection operators read in
  non local Contribution for L=            1  read in
    real space projection operators read in
    PAW grid and wavefunctions read in
 
   number of l-projection  operators is LMAX  =            6
   number of lm-projection operators is LMMAX =           18
 
 -----------------------------------------------------------------------------
|                                                                             |
|               ----> ADVICE to this user running VASP <----                  |
|                                                                             |
|     You enforced a specific xc type in the INCAR file but a different       |
|     type was found in the POTCAR file.                                      |
|     I HOPE YOU KNOW WHAT YOU ARE DOING!                                     |
|                                                                             |
 -----------------------------------------------------------------------------

  PAW_PBE Pt 04Feb2005                  :
 energy of atom  1       EATOM= -729.1176
 kinetic energy error for atom=    0.0052 (will be added to EATOM!!)
 
 
 POSCAR: Pt1
  positions in direct lattice
  velocities in cartesian coordinates
 exchange correlation table for  LEXCH =        9
   RHO(1)=    0.500       N(1)  =     2000
   RHO(2)=  100.500       N(2)  =     4000
 


--------------------------------------------------------------------------------------------------------


 ion  position               nearest neighbor table
   1  0.000  0.000  0.000-
 

IMPORTANT INFORMATION: All symmetrisations will be switched off!
NOSYMM: (Re-)initialisation of all symmetry stuff for point group C_1.


----------------------------------------------------------------------------------------

                                     Primitive cell                                     

  volume of cell :      16.8739

  direct lattice vectors                    reciprocal lattice vectors
     2.493298000  0.000005000  1.439521000     0.401075908 -0.141802442 -0.000000729
     0.831105000  2.350701000  1.439521000    -0.000000427  0.425405621 -0.000000739
     0.000007000  0.000005000  2.879019000    -0.200539343 -0.141802722  0.347341269

  length of vectors
     2.879019907  2.879019177  2.879019000     0.425405473  0.425405621  0.425405685

  position of ions in fractional coordinates (direct lattice)
     0.000000000  0.000000000  0.000000000

  ion indices of the primitive-cell ions
   primitive index   ion index
                 1           1

----------------------------------------------------------------------------------------

 
 -----------------------------------------------------------------------------
|                                                                             |
|           W    W    AA    RRRRR   N    N  II  N    N   GGGG   !!!           |
|           W    W   A  A   R    R  NN   N  II  NN   N  G    G  !!!           |
|           W    W  A    A  R    R  N N  N  II  N N  N  G       !!!           |
|           W WW W  AAAAAA  RRRRR   N  N N  II  N  N N  G  GGG   !            |
|           WW  WW  A    A  R   R   N   NN  II  N   NN  G    G                |
|           W    W  A    A  R    R  N    N  II  N    N   GGGG   !!!           |
|                                                                             |
|     The requested file  could not be found or opened for reading            |
|     k-point information. Automatic k-point generation is used as a          |
|     fallback, which may lead to unwanted results.                           |
|                                                                             |
 -----------------------------------------------------------------------------

 

Automatic generation of k-mesh.
 Grid dimensions derived from KSPACING:
 generate k-points for:    6    6    6

 Generating k-lattice:

  Cartesian coordinates                     Fractional coordinates (reciprocal lattice)
     0.066845985 -0.023633740 -0.000000121     0.166666667 -0.000000000 -0.000000000
    -0.000000071  0.070900937 -0.000000123    -0.000000000  0.166666667  0.000000000
    -0.033423224 -0.023633787  0.057890211     0.000000000  0.000000000  0.166666667

  Length of vectors
     0.070900912  0.070900937  0.070900948

  Shift w.r.t. Gamma in fractional coordinates (k-lattice)
     0.000000000  0.000000000  0.000000000

 
 Subroutine IBZKPT returns following result:
 ===========================================
 
 Found    112 irreducible k-points:
 
 Following reciprocal coordinates:
            Coordinates               Weight
  0.000000  0.000000  0.000000      1.000000
  0.166667  0.000000  0.000000      2.000000
  0.000000  0.166667  0.000000      2.000000
  0.000000  0.000000  0.166667      2.000000
  0.166667  0.166667  0.166667      2.000000
  0.333333  0.000000  0.000000      2.000000
  0.000000  0.333333  0.000000      2.000000
  0.000000  0.000000  0.333333      2.000000
  0.333333  0.333333  0.333333      2.000000
  0.500000  0.000000  0.000000      1.000000
  0.000000  0.500000  0.000000      1.000000
  0.000000  0.000000  0.500000      1.000000
  0.500000  0.500000  0.500000      1.000000
  0.166667  0.166667  0.000000      2.000000
  0.000000  0.166667  0.166667      2.000000
  0.166667  0.000000  0.166667      2.000000
  0.333333  0.166667  0.000000      2.000000
  0.000000  0.333333  0.166667      2.000000
  0.166667  0.000000  0.333333      2.000000
  0.166667  0.166667 -0.166667      2.000000
  0.333333  0.166667  0.333333      2.000000
  0.166667  0.333333  0.000000      2.000000
  0.166667 -0.166667 -0.166667      2.000000
  0.333333  0.333333  0.166667      2.000000
  0.000000  0.166667  0.333333      2.000000
 -0.166667  0.166667 -0.166667      2.000000
  0.166667  0.333333  0.333333      2.000000
  0.333333  0.000000  0.166667      2.000000
  0.500000  0.166667  0.000000      2.000000
  0.000000  0.500000  0.166667      2.000000
  0.166667  0.000000  0.500000      2.000000
  0.166667  0.166667 -0.333333      2.000000
  0.500000  0.333333  0.500000      2.000000
  0.166667  0.500000  0.000000      2.000000
  0.333333 -0.166667 -0.166667      2.000000
  0.500000  0.500000  0.333333      2.000000
  0.000000  0.166667  0.500000      2.000000
 -0.166667  0.333333 -0.166667      2.000000
  0.333333  0.500000  0.500000      2.000000
  0.500000  0.000000  0.166667      2.000000
 -0.333333  0.166667  0.000000      2.000000
  0.000000 -0.333333  0.166667      2.000000
  0.166667  0.000000 -0.333333      2.000000
  0.166667  0.166667  0.500000      2.000000
 -0.333333  0.500000 -0.333333      2.000000
  0.166667 -0.333333  0.000000      2.000000
  0.500000 -0.166667 -0.166667      2.000000
 -0.333333 -0.333333  0.500000      2.000000
  0.000000  0.166667 -0.333333      2.000000
 -0.166667  0.500000 -0.166667      2.000000
  0.500000 -0.333333 -0.333333      2.000000
 -0.333333  0.000000  0.166667      2.000000
 -0.166667  0.166667  0.000000      2.000000
  0.000000 -0.166667  0.166667      2.000000
  0.166667  0.000000 -0.166667      2.000000
  0.166667  0.166667  0.333333      2.000000
 -0.166667 -0.333333 -0.166667      2.000000
 -0.333333 -0.166667 -0.166667      2.000000
  0.333333  0.333333  0.000000      2.000000
  0.000000  0.333333  0.333333      2.000000
  0.333333  0.000000  0.333333      2.000000
  0.500000  0.333333  0.000000      2.000000
  0.000000  0.500000  0.333333      2.000000
  0.333333  0.000000  0.500000      2.000000
  0.333333  0.333333 -0.166667      2.000000
  0.500000  0.166667  0.500000      2.000000
  0.333333  0.500000  0.000000      2.000000
  0.166667 -0.333333 -0.333333      2.000000
  0.500000  0.500000  0.166667      2.000000
  0.000000  0.333333  0.500000      2.000000
 -0.333333  0.166667 -0.333333      2.000000
  0.166667  0.500000  0.500000      2.000000
  0.500000  0.000000  0.333333      2.000000
 -0.333333  0.333333  0.000000      2.000000
  0.000000 -0.333333  0.333333      2.000000
  0.333333  0.000000 -0.333333      2.000000
  0.333333  0.333333 -0.333333      2.000000
 -0.333333  0.333333 -0.333333      2.000000
  0.333333 -0.333333 -0.333333      2.000000
  0.500000  0.500000  0.000000      1.000000
  0.000000  0.500000  0.500000      1.000000
  0.500000  0.000000  0.500000      1.000000
  0.500000  0.333333  0.166667      2.000000
  0.166667  0.500000  0.333333      2.000000
  0.333333  0.166667  0.500000      2.000000
  0.333333  0.166667 -0.166667      2.000000
  0.500000  0.166667  0.333333      2.000000
  0.166667 -0.333333 -0.166667      2.000000
  0.166667  0.333333 -0.166667      2.000000
  0.166667 -0.166667 -0.333333      2.000000
  0.333333  0.500000  0.166667      2.000000
 -0.166667  0.166667 -0.333333      2.000000
 -0.333333  0.166667 -0.166667      2.000000
  0.166667  0.333333  0.500000      2.000000
 -0.333333  0.333333  0.166667      2.000000
  0.166667 -0.333333  0.333333      2.000000
  0.333333  0.166667 -0.333333      2.000000
 -0.333333  0.333333  0.500000      2.000000
  0.166667  0.500000 -0.166667      2.000000
  0.333333 -0.166667 -0.333333      2.000000
  0.500000 -0.333333  0.333333      2.000000
 -0.166667  0.166667  0.500000      2.000000
 -0.333333  0.333333 -0.166667      2.000000
  0.333333  0.500000 -0.333333      2.000000
  0.500000 -0.166667  0.166667      2.000000
 -0.166667 -0.333333  0.333333      2.000000
 -0.333333  0.500000  0.166667      2.000000
  0.166667 -0.333333  0.500000      2.000000
  0.500000  0.166667 -0.333333      2.000000
  0.500000  0.333333 -0.166667      2.000000
 -0.333333  0.166667  0.500000      2.000000
  0.166667  0.500000 -0.333333      2.000000
 
 Following cartesian coordinates:
            Coordinates               Weight
  0.000000  0.000000  0.000000      1.000000
  0.066846 -0.023634 -0.000000      2.000000
 -0.000000  0.070901 -0.000000      2.000000
 -0.033423 -0.023634  0.057890      2.000000
  0.033423  0.023633  0.057890      2.000000
  0.133692 -0.047267 -0.000000      2.000000
 -0.000000  0.141802 -0.000000      2.000000
 -0.066846 -0.047268  0.115780      2.000000
  0.066845  0.047267  0.115780      2.000000
  0.200538 -0.070901 -0.000000      1.000000
 -0.000000  0.212703 -0.000000      1.000000
 -0.100270 -0.070901  0.173671      1.000000
  0.100268  0.070900  0.173670      1.000000
  0.066846  0.047267 -0.000000      2.000000
 -0.033423  0.047267  0.057890      2.000000
  0.033423 -0.047268  0.057890      2.000000
  0.133692  0.023633 -0.000000      2.000000
 -0.033423  0.118168  0.057890      2.000000
 -0.000000 -0.070901  0.115780      2.000000
  0.100269  0.070901 -0.057890      2.000000
  0.066845 -0.023634  0.115780      2.000000
  0.066846  0.118168 -0.000000      2.000000
  0.100269 -0.070901 -0.057890      2.000000
  0.100269  0.070901  0.057890      2.000000
 -0.066847  0.023633  0.115780      2.000000
 -0.033423  0.118168 -0.057890      2.000000
 -0.000001  0.070901  0.115780      2.000000
  0.100269 -0.070901  0.057890      2.000000
  0.200538 -0.000000 -0.000000      2.000000
 -0.033423  0.189069  0.057890      2.000000
 -0.033424 -0.094535  0.173671      2.000000
  0.133692  0.094535 -0.115781      2.000000
  0.100268 -0.000001  0.173670      2.000000
  0.066846  0.189069 -0.000000      2.000000
  0.167115 -0.094535 -0.057890      2.000000
  0.133691  0.094534  0.115780      2.000000
 -0.100270 -0.000000  0.173671      2.000000
 -0.033423  0.189069 -0.057890      2.000000
  0.033422  0.094534  0.173670      2.000000
  0.167115 -0.094535  0.057890      2.000000
 -0.133692  0.118168  0.000000      2.000000
 -0.033423 -0.165436  0.057890      2.000000
  0.133692  0.023634 -0.115781      2.000000
 -0.033424 -0.023634  0.173670      2.000000
 -0.066846  0.307238 -0.115781      2.000000
  0.066846 -0.165436  0.000000      2.000000
  0.233961 -0.118168 -0.057890      2.000000
 -0.233961 -0.165436  0.173671      2.000000
  0.066846  0.118169 -0.115781      2.000000
 -0.033423  0.259970 -0.057890      2.000000
  0.267385 -0.165436 -0.115781      2.000000
 -0.167115  0.023634  0.057890      2.000000
 -0.066846  0.094535 -0.000000      2.000000
 -0.033423 -0.094535  0.057890      2.000000
  0.100269  0.000000 -0.057890      2.000000
 -0.000001 -0.000000  0.115780      2.000000
 -0.033423 -0.094534 -0.057890      2.000000
 -0.100269  0.000000 -0.057890      2.000000
  0.133692  0.094534 -0.000000      2.000000
 -0.066847  0.094534  0.115780      2.000000
  0.066846 -0.094535  0.115780      2.000000
  0.200538  0.070901 -0.000001      2.000000
 -0.066847  0.165435  0.115780      2.000000
  0.033422 -0.118169  0.173670      2.000000
  0.167115  0.118168 -0.057891      2.000000
  0.100268 -0.070902  0.173670      2.000000
  0.133692  0.165435 -0.000001      2.000000
  0.133693 -0.118168 -0.115780      2.000000
  0.167115  0.118168  0.057889      2.000000
 -0.100270  0.070901  0.173670      2.000000
 -0.066846  0.165436 -0.115780      2.000000
 -0.033424  0.118168  0.173670      2.000000
  0.133692 -0.118169  0.115780      2.000000
 -0.133692  0.189069 -0.000000      2.000000
 -0.066846 -0.189069  0.115781      2.000000
  0.200538  0.000000 -0.115781      2.000000
  0.200538  0.141802 -0.115781      2.000000
 -0.066846  0.236337 -0.115780      2.000000
  0.200539 -0.141802 -0.115780      2.000000
  0.200538  0.141802 -0.000001      1.000000
 -0.100270  0.141801  0.173670      1.000000
  0.100268 -0.141803  0.173670      1.000000
  0.167115  0.047267  0.057890      2.000000
 -0.000001  0.141801  0.115780      2.000000
  0.033422 -0.047268  0.173670      2.000000
  0.167115  0.047267 -0.057891      2.000000
  0.133691 -0.047268  0.115780      2.000000
  0.100269 -0.141802 -0.057890      2.000000
  0.100269  0.141802 -0.057891      2.000000
  0.133693 -0.047267 -0.115780      2.000000
  0.100269  0.141802  0.057890      2.000000
  0.000000  0.141802 -0.115780      2.000000
 -0.100269  0.141802 -0.057890      2.000000
 -0.033424  0.047267  0.173670      2.000000
 -0.167115  0.165436  0.057890      2.000000
 -0.000000 -0.212703  0.115781      2.000000
  0.200538  0.070901 -0.115781      2.000000
 -0.233962  0.118168  0.173671      2.000000
  0.100269  0.212703 -0.057891      2.000000
  0.200538 -0.070901 -0.115781      2.000000
  0.133692 -0.259971  0.115780      2.000000
 -0.167116  0.023633  0.173671      2.000000
 -0.100269  0.212703 -0.057890      2.000000
  0.200538  0.212703 -0.115781      2.000000
  0.167115 -0.165436  0.057890      2.000000
 -0.133692 -0.165436  0.115781      2.000000
 -0.167115  0.236337  0.057890      2.000000
 -0.033424 -0.236337  0.173671      2.000000
  0.267384  0.047267 -0.115781      2.000000
  0.233961  0.094534 -0.057891      2.000000
 -0.233962  0.047267  0.173671      2.000000
  0.133692  0.236337 -0.115781      2.000000
 


--------------------------------------------------------------------------------------------------------




 Dimension of arrays:
   k-points           NKPTS =    112   k-points in BZ     NKDIM =    112   number of bands    NBANDS=     12
   number of dos      NEDOS =    301   number of ions     NIONS =      1
   non local maximal  LDIM  =      6   non local SUM 2l+1 LMDIM =     18
   total plane-waves  NPLWV =   2744
   max r-space proj   IRMAX =      1   max aug-charges    IRDMAX=  10048
   dimension x,y,z NGX =    14 NGY =   14 NGZ =   14
   dimension x,y,z NGXF=    28 NGYF=   28 NGZF=   28
   support grid    NGXF=    28 NGYF=   28 NGZF=   28
   ions per type =               1
   NGX,Y,Z   is equivalent  to a cutoff of   8.08,  8.08,  8.08 a.u.
   NGXF,Y,Z  is equivalent  to a cutoff of  16.17, 16.17, 16.17 a.u.

 SYSTEM =  unknown system                          
 POSCAR =  Pt1                                     

 Startparameter for this run:
   NWRITE =      2    write-flag & timer
   PREC   = normal    normal or accurate (medium, high low for compatibility)
   ISTART =      0    job   : 0-new  1-cont  2-samecut
   ICHARG =      2    charge: 1-file 2-atom 10-const
   ISPIN  =      1    spin polarized calculation?
   LNONCOLLINEAR =      F non collinear calculations
   LSORBIT =      F    spin-orbit coupling
   INIWAV =      1    electr: 0-lowe 1-rand  2-diag
   LASPH  =      F    aspherical Exc in radial PAW
   METAGGA=      F    non-selfconsistent MetaGGA calc.

 Electronic Relaxation 1
   ENCUT  =  420.0 eV  30.87 Ry    5.56 a.u.   4.81  4.81  4.81*2*pi/ulx,y,z
   ENINI  =  420.0     initial cutoff
   ENAUG  =  359.0 eV  augmentation charge cutoff
   NELM   =     60;   NELMIN=  4; NELMDL= -5     # of ELM steps 
   EDIFF  = 0.1E-03   stopping-criterion for ELM
   LREAL  =      F    real-space projection
   NLSPLINE    = F    spline interpolate recip. space projectors
   LCOMPAT=      F    compatible to vasp.4.4
   GGA_COMPAT  = T    GGA compatible to vasp.4.4-vasp.4.6
   LMAXPAW     = -100 max onsite density
   LMAXMIX     =    2 max onsite mixed and CHGCAR
   VOSKOWN=      0    Vosko Wilk Nusair interpolation
   ROPT   =    0.00000
 Ionic relaxation
   EDIFFG = -.3E-01   stopping-criterion for IOM
   NSW    =      0    number of steps for IOM
   NBLOCK =      1;   KBLOCK =      1    inner block; outer block 
   IBRION =     -1    ionic relax: 0-MD 1-quasi-New 2-CG
   NFREE  =      1    steps in history (QN), initial steepest desc. (CG)
   ISIF   =      0    stress and relaxation
   IWAVPR =     10    prediction:  0-non 1-charg 2-wave 3-comb
   ISYM   =      0    0-nonsym 1-usesym 2-fastsym
   LCORR  =      T    Harris-Foulkes like correction to forces

   POTIM  = 0.5000    time-step for ionic-motion
   TEIN   =    0.0    initial temperature
   TEBEG  =    0.0;   TEEND  =   0.0 temperature during run
   SMASS  =  -3.00    Nose mass-parameter (am)
   estimated Nose-frequenzy (Omega)   =  0.10E-29 period in steps = 0.13E+47 mass=  -0.189E-27a.u.
   SCALEE = 1.0000    scale energy and forces
   NPACO  =    256;   APACO  = 16.0  distance and # of slots for P.C.
   PSTRESS=    0.0 pullay stress

  Mass of Ions in am
   POMASS = 195.08
  Ionic Valenz
   ZVAL   =  10.00
  Atomic Wigner-Seitz radii
   RWIGS  =  -1.00
  virtual crystal weights 
   VCA    =   1.00
   NELECT =      10.0000    total number of electrons
   NUPDOWN=      -1.0000    fix difference up-down

 DOS related values:
   EMIN   =  10.00;   EMAX   =-10.00  energy-range for DOS
   EFERMI =   0.00
   ISMEAR =     0;   SIGMA  =   0.05  broadening in eV -4-tet -1-fermi 0-gaus

 Electronic relaxation 2 (details)
   IALGO  =     38    algorithm
   LDIAG  =      T    sub-space diagonalisation (order eigenvalues)
   LSUBROT=      F    optimize rotation matrix (better conditioning)
   TURBO    =      0    0=normal 1=particle mesh
   IRESTART =      0    0=no restart 2=restart with 2 vectors
   NREBOOT  =      0    no. of reboots
   NMIN     =      0    reboot dimension
   EREF     =   0.00    reference energy to select bands
   IMIX   =      4    mixing-type and parameters
     AMIX     =   0.40;   BMIX     =  1.00
     AMIX_MAG =   1.60;   BMIX_MAG =  1.00
     AMIN     =   0.10
     WC   =   100.;   INIMIX=   1;  MIXPRE=   1;  MAXMIX= -45

 Intra band minimization:
   WEIMIN = 0.0000     energy-eigenvalue tresh-hold
   EBREAK =  0.21E-05  absolut break condition
   DEPER  =   0.30     relativ break condition  

   TIME   =   0.40     timestep for ELM

  volume/ion in A,a.u.               =      16.87       113.87
  Fermi-wavevector in a.u.,A,eV,Ry     =   1.375107  2.598576 25.727524  1.890920
  Thomas-Fermi vector in A             =   2.500473
 
 Write flags
   LWAVE        =      F    write WAVECAR
   LDOWNSAMPLE  =      F    k-point downsampling of WAVECAR
   LCHARG       =      T    write CHGCAR
   LVTOT        =      F    write LOCPOT, total local potential
   LVHAR        =      F    write LOCPOT, Hartree potential only
   LELF         =      F    write electronic localiz. function (ELF)
   LORBIT       =     11    0 simple, 1 ext, 2 COOP (PROOUT), +10 PAW based schemes


 Dipole corrections
   LMONO  =      F    monopole corrections only (constant potential shift)
   LDIPOL =      F    correct potential (dipole corrections)
   IDIPOL =      0    1-x, 2-y, 3-z, 4-all directions 
   EPSILON=  1.0000000 bulk dielectric constant

 Exchange correlation treatment:
   GGA     =    RP    GGA type
   LEXCH   =     9    internal setting for exchange type
   VOSKOWN=      0    Vosko Wilk Nusair interpolation
   LHFCALC =     F    Hartree Fock is set to
   LHFONE  =     F    Hartree Fock one center treatment
   AEXX    =    0.0000 exact exchange contribution

 Linear response parameters
   LEPSILON=     F    determine dielectric tensor
   LRPA    =     F    only Hartree local field effects (RPA)
   LNABLA  =     F    use nabla operator in PAW spheres
   LVEL    =     F    velocity operator in full k-point grid
   LINTERFAST=   F  fast interpolation
   KINTER  =     0    interpolate to denser k-point grid
   CSHIFT  =0.1000    complex shift for real part using Kramers Kronig
   OMEGAMAX=  -1.0    maximum frequency
   DEG_THRESHOLD= 0.2000000E-02 threshold for treating states as degnerate
   RTIME   =   -0.100 relaxation time in fs
  (WPLASMAI=    0.000 imaginary part of plasma frequency in eV, 0.658/RTIME)
   DFIELD  = 0.0000000 0.0000000 0.0000000 field for delta impulse in time
 
 Orbital magnetization related:
   ORBITALMAG=     F  switch on orbital magnetization
   LCHIMAG   =     F  perturbation theory with respect to B field
   DQ        =  0.001000  dq finite difference perturbation B field
   LLRAUG    =     F  two centre corrections for induced B field



--------------------------------------------------------------------------------------------------------


 Static calculation
 charge density and potential will be updated during run
 non-spin polarized calculation
 Variant of blocked Davidson
 Davidson routine will perform the subspace rotation
 perform sub-space diagonalisation
    after iterative eigenvector-optimisation
 modified Broyden-mixing scheme, WC =      100.0
 initial mixing is a Kerker type mixing with AMIX =  0.4000 and BMIX =      1.0000
 Hartree-type preconditioning will be used
 using additional bands             7
 reciprocal scheme for non local part
 use partial core corrections
 calculate Harris-corrections to forces 
   (improved forces if not selfconsistent)
 use gradient corrections 
 use of overlap-Matrix (Vanderbilt PP)
 Gauss-broadening in eV      SIGMA  =   0.05


--------------------------------------------------------------------------------------------------------


  energy-cutoff  :      420.00
  volume of cell :       16.87
      direct lattice vectors                 reciprocal lattice vectors
     2.493298000  0.000005000  1.439521000     0.401075908 -0.141802442 -0.000000729
     0.831105000  2.350701000  1.439521000    -0.000000427  0.425405621 -0.000000739
     0.000007000  0.000005000  2.879019000    -0.200539343 -0.141802722  0.347341269

  length of vectors
     2.879019907  2.879019177  2.879019000     0.425405473  0.425405621  0.425405685


 
 k-points in units of 2pi/SCALE and weight: read from INCAR                         
   0.00000000  0.00000000  0.00000000       0.005
   0.06684598 -0.02363374 -0.00000012       0.009
  -0.00000007  0.07090094 -0.00000012       0.009
  -0.03342322 -0.02363379  0.05789021       0.009
   0.03342269  0.02363341  0.05788997       0.009
   0.13369197 -0.04726748 -0.00000024       0.009
  -0.00000014  0.14180187 -0.00000025       0.009
  -0.06684645 -0.04726757  0.11578042       0.009
   0.06684538  0.04726682  0.11577993       0.009
   0.20053795 -0.07090122 -0.00000036       0.005
  -0.00000021  0.21270281 -0.00000037       0.005
  -0.10026967 -0.07090136  0.17367063       0.005
   0.10026807  0.07090023  0.17366990       0.005
   0.06684591  0.04726720 -0.00000024       0.009
  -0.03342329  0.04726715  0.05789009       0.009
   0.03342276 -0.04726753  0.05789009       0.009
   0.13369190  0.02363346 -0.00000037       0.009
  -0.03342337  0.11816809  0.05788997       0.009
  -0.00000046 -0.07090131  0.11578030       0.009
   0.10026914  0.07090098 -0.05789046       0.009
   0.06684545 -0.02363412  0.11578006       0.009
   0.06684584  0.11816813 -0.00000037       0.009
   0.10026928 -0.07090089 -0.05789021       0.009
   0.10026860  0.07090061  0.05788972       0.009
  -0.06684652  0.02363336  0.11578030       0.009
  -0.03342283  0.11816846 -0.05789021       0.009
  -0.00000061  0.07090056  0.11578006       0.009
   0.10026875 -0.07090127  0.05788997       0.009
   0.20053788 -0.00000028 -0.00000049       0.009
  -0.03342344  0.18906902  0.05788984       0.009
  -0.03342369 -0.09453510  0.17367051       0.009
   0.13369236  0.09453477 -0.11578067       0.009
   0.10026814 -0.00000071  0.17367002       0.009
   0.06684577  0.18906907 -0.00000049       0.009
   0.16711526 -0.09453463 -0.05789033       0.009
   0.13369129  0.09453402  0.11577969       0.009
  -0.10026974 -0.00000042  0.17367051       0.009
  -0.03342290  0.18906940 -0.05789034       0.009
   0.03342208  0.09453397  0.17367002       0.009
   0.16711473 -0.09453501  0.05788985       0.009
  -0.13369204  0.11816842  0.00000012       0.009
  -0.03342308 -0.16543566  0.05789046       0.009
   0.13369243  0.02363383 -0.11578054       0.009
  -0.03342376 -0.02363416  0.17367039       0.009
  -0.06684573  0.30723787 -0.11578055       0.009
   0.06684613 -0.16543561  0.00000012       0.009
   0.23396125 -0.11816837 -0.05789045       0.009
  -0.23396150 -0.16543575  0.17367112       0.009
   0.06684638  0.11816851 -0.11578055       0.009
  -0.03342297  0.25997034 -0.05789046       0.009
   0.26738454 -0.16543552 -0.11578054       0.009
  -0.16711519  0.02363369  0.05789045       0.009
  -0.06684606  0.09453468 -0.00000000       0.009
  -0.03342315 -0.09453472  0.05789033       0.009
   0.10026921  0.00000005 -0.05789033       0.009
  -0.00000053 -0.00000038  0.11578018       0.009
  -0.03342262 -0.09453435 -0.05788984       0.009
  -0.10026867  0.00000033 -0.05788985       0.009
   0.13369183  0.09453439 -0.00000049       0.009
  -0.06684659  0.09453430  0.11578018       0.009
   0.06684552 -0.09453505  0.11578018       0.009
   0.20053781  0.07090065 -0.00000061       0.009
  -0.06684666  0.16543524  0.11578005       0.009
   0.03342230 -0.11816884  0.17367039       0.009
   0.16711505  0.11816818 -0.05789070       0.009
   0.10026821 -0.07090165  0.17367015       0.009
   0.13369176  0.16543533 -0.00000061       0.009
   0.13369257 -0.11816804 -0.11578030       0.009
   0.16711452  0.11816780  0.05788948       0.009
  -0.10026981  0.07090051  0.17367039       0.009
  -0.06684559  0.16543599 -0.11578030       0.009
  -0.03342390  0.11816771  0.17367014       0.009
   0.13369151 -0.11816880  0.11578006       0.009
  -0.13369211  0.18906935 -0.00000000       0.009
  -0.06684631 -0.18906945  0.11578067       0.009
   0.20053842  0.00000009 -0.11578067       0.009
   0.20053827  0.14180197 -0.11578091       0.009
  -0.06684566  0.23633693 -0.11578043       0.009
   0.20053856 -0.14180178 -0.11578042       0.009
   0.20053774  0.14180159 -0.00000073       0.005
  -0.10026988  0.14180145  0.17367027       0.005
   0.10026828 -0.14180258  0.17367027       0.005
   0.16711459  0.04726687  0.05788960       0.009
  -0.00000068  0.14180150  0.11577993       0.009
   0.03342223 -0.04726790  0.17367027       0.009
   0.16711512  0.04726724 -0.05789058       0.009
   0.13369144 -0.04726786  0.11577994       0.009
   0.10026935 -0.14180183 -0.05789009       0.009
   0.10026907  0.14180192 -0.05789058       0.009
   0.13369250 -0.04726710 -0.11578042       0.009
   0.10026853  0.14180154  0.05788960       0.009
   0.00000039  0.14180225 -0.11578042       0.009
  -0.10026882  0.14180220 -0.05789009       0.009
  -0.03342383  0.04726677  0.17367027       0.009
  -0.16711534  0.16543557  0.05789021       0.009
  -0.00000032 -0.21270319  0.11578055       0.009
   0.20053835  0.07090103 -0.11578079       0.009
  -0.23396178  0.11816799  0.17367063       0.009
   0.10026900  0.21270286 -0.05789070       0.009
   0.20053849 -0.07090084 -0.11578054       0.009
   0.13369165 -0.25997067  0.11578030       0.009
  -0.16711573  0.02363332  0.17367063       0.009
  -0.10026889  0.21270314 -0.05789021       0.009
   0.20053820  0.21270290 -0.11578104       0.009
   0.16711480 -0.16543594  0.05788997       0.009
  -0.13369229 -0.16543571  0.11578079       0.009
  -0.16711541  0.23633650  0.05789009       0.009
  -0.03342354 -0.23633697  0.17367076       0.009
   0.26738433  0.04726729 -0.11578091       0.009
   0.23396104  0.09453444 -0.05789082       0.009
  -0.23396171  0.04726706  0.17367075       0.009
   0.13369222  0.23633664 -0.11578091       0.009
 
 k-points in reciprocal lattice and weights: read from INCAR                         
   0.00000000  0.00000000  0.00000000       0.005
   0.16666667  0.00000000  0.00000000       0.009
   0.00000000  0.16666667  0.00000000       0.009
   0.00000000  0.00000000  0.16666667       0.009
   0.16666667  0.16666667  0.16666667       0.009
   0.33333333  0.00000000  0.00000000       0.009
   0.00000000  0.33333333  0.00000000       0.009
   0.00000000  0.00000000  0.33333333       0.009
   0.33333333  0.33333333  0.33333333       0.009
   0.50000000  0.00000000  0.00000000       0.005
   0.00000000  0.50000000  0.00000000       0.005
   0.00000000  0.00000000  0.50000000       0.005
   0.50000000  0.50000000  0.50000000       0.005
   0.16666667  0.16666667  0.00000000       0.009
   0.00000000  0.16666667  0.16666667       0.009
   0.16666667  0.00000000  0.16666667       0.009
   0.33333333  0.16666667  0.00000000       0.009
   0.00000000  0.33333333  0.16666667       0.009
   0.16666667  0.00000000  0.33333333       0.009
   0.16666667  0.16666667 -0.16666667       0.009
   0.33333333  0.16666667  0.33333333       0.009
   0.16666667  0.33333333  0.00000000       0.009
   0.16666667 -0.16666667 -0.16666667       0.009
   0.33333333  0.33333333  0.16666667       0.009
   0.00000000  0.16666667  0.33333333       0.009
  -0.16666667  0.16666667 -0.16666667       0.009
   0.16666667  0.33333333  0.33333333       0.009
   0.33333333  0.00000000  0.16666667       0.009
   0.50000000  0.16666667  0.00000000       0.009
   0.00000000  0.50000000  0.16666667       0.009
   0.16666667  0.00000000  0.50000000       0.009
   0.16666667  0.16666667 -0.33333333       0.009
   0.50000000  0.33333333  0.50000000       0.009
   0.16666667  0.50000000  0.00000000       0.009
   0.33333333 -0.16666667 -0.16666667       0.009
   0.50000000  0.50000000  0.33333333       0.009
   0.00000000  0.16666667  0.50000000       0.009
  -0.16666667  0.33333333 -0.16666667       0.009
   0.33333333  0.50000000  0.50000000       0.009
   0.50000000  0.00000000  0.16666667       0.009
  -0.33333333  0.16666667  0.00000000       0.009
   0.00000000 -0.33333333  0.16666667       0.009
   0.16666667  0.00000000 -0.33333333       0.009
   0.16666667  0.16666667  0.50000000       0.009
  -0.33333333  0.50000000 -0.33333333       0.009
   0.16666667 -0.33333333  0.00000000       0.009
   0.50000000 -0.16666667 -0.16666667       0.009
  -0.33333333 -0.33333333  0.50000000       0.009
   0.00000000  0.16666667 -0.33333333       0.009
  -0.16666667  0.50000000 -0.16666667       0.009
   0.50000000 -0.33333333 -0.33333333       0.009
  -0.33333333  0.00000000  0.16666667       0.009
  -0.16666667  0.16666667  0.00000000       0.009
   0.00000000 -0.16666667  0.16666667       0.009
   0.16666667  0.00000000 -0.16666667       0.009
   0.16666667  0.16666667  0.33333333       0.009
  -0.16666667 -0.33333333 -0.16666667       0.009
  -0.33333333 -0.16666667 -0.16666667       0.009
   0.33333333  0.33333333  0.00000000       0.009
   0.00000000  0.33333333  0.33333333       0.009
   0.33333333  0.00000000  0.33333333       0.009
   0.50000000  0.33333333  0.00000000       0.009
   0.00000000  0.50000000  0.33333333       0.009
   0.33333333  0.00000000  0.50000000       0.009
   0.33333333  0.33333333 -0.16666667       0.009
   0.50000000  0.16666667  0.50000000       0.009
   0.33333333  0.50000000  0.00000000       0.009
   0.16666667 -0.33333333 -0.33333333       0.009
   0.50000000  0.50000000  0.16666667       0.009
   0.00000000  0.33333333  0.50000000       0.009
  -0.33333333  0.16666667 -0.33333333       0.009
   0.16666667  0.50000000  0.50000000       0.009
   0.50000000  0.00000000  0.33333333       0.009
  -0.33333333  0.33333333  0.00000000       0.009
   0.00000000 -0.33333333  0.33333333       0.009
   0.33333333  0.00000000 -0.33333333       0.009
   0.33333333  0.33333333 -0.33333333       0.009
  -0.33333333  0.33333333 -0.33333333       0.009
   0.33333333 -0.33333333 -0.33333333       0.009
   0.50000000  0.50000000  0.00000000       0.005
   0.00000000  0.50000000  0.50000000       0.005
   0.50000000  0.00000000  0.50000000       0.005
   0.50000000  0.33333333  0.16666667       0.009
   0.16666667  0.50000000  0.33333333       0.009
   0.33333333  0.16666667  0.50000000       0.009
   0.33333333  0.16666667 -0.16666667       0.009
   0.50000000  0.16666667  0.33333333       0.009
   0.16666667 -0.33333333 -0.16666667       0.009
   0.16666667  0.33333333 -0.16666667       0.009
   0.16666667 -0.16666667 -0.33333333       0.009
   0.33333333  0.50000000  0.16666667       0.009
  -0.16666667  0.16666667 -0.33333333       0.009
  -0.33333333  0.16666667 -0.16666667       0.009
   0.16666667  0.33333333  0.50000000       0.009
  -0.33333333  0.33333333  0.16666667       0.009
   0.16666667 -0.33333333  0.33333333       0.009
   0.33333333  0.16666667 -0.33333333       0.009
  -0.33333333  0.33333333  0.50000000       0.009
   0.16666667  0.50000000 -0.16666667       0.009
   0.33333333 -0.16666667 -0.33333333       0.009
   0.50000000 -0.33333333  0.33333333       0.009
  -0.16666667  0.16666667  0.50000000       0.009
  -0.33333333  0.33333333 -0.16666667       0.009
   0.33333333  0.50000000 -0.33333333       0.009
   0.50000000 -0.16666667  0.16666667       0.009
  -0.16666667 -0.33333333  0.33333333       0.009
  -0.33333333  0.50000000  0.16666667       0.009
   0.16666667 -0.33333333  0.50000000       0.009
   0.50000000  0.16666667 -0.33333333       0.009
   0.50000000  0.33333333 -0.16666667       0.009
  -0.33333333  0.16666667  0.50000000       0.009
   0.16666667  0.50000000 -0.33333333       0.009
 
 position of ions in fractional coordinates (direct lattice) 
   0.00000000  0.00000000  0.00000000
 
 position of ions in cartesian coordinates  (Angst):
   0.00000000  0.00000000  0.00000000
 


--------------------------------------------------------------------------------------------------------


 k-point   1 :   0.0000 0.0000 0.0000  plane waves:     331
 k-point   2 :   0.1667 0.0000 0.0000  plane waves:     326
 k-point   3 :   0.0000 0.1667 0.0000  plane waves:     326
 k-point   4 :   0.0000 0.0000 0.1667  plane waves:     326
 k-point   5 :   0.1667 0.1667 0.1667  plane waves:     326
 k-point   6 :   0.3333 0.0000 0.0000  plane waves:     332
 k-point   7 :   0.0000 0.3333 0.0000  plane waves:     332
 k-point   8 :   0.0000 0.0000 0.3333  plane waves:     332
 k-point   9 :   0.3333 0.3333 0.3333  plane waves:     332
 k-point  10 :   0.5000 0.0000 0.0000  plane waves:     332
 k-point  11 :   0.0000 0.5000 0.0000  plane waves:     332
 k-point  12 :   0.0000 0.0000 0.5000  plane waves:     332
 k-point  13 :   0.5000 0.5000 0.5000  plane waves:     332
 k-point  14 :   0.1667 0.1667 0.0000  plane waves:     327
 k-point  15 :   0.0000 0.1667 0.1667  plane waves:     327
 k-point  16 :   0.1667 0.0000 0.1667  plane waves:     327
 k-point  17 :   0.3333 0.1667 0.0000  plane waves:     326
 k-point  18 :   0.0000 0.3333 0.1667  plane waves:     326
 k-point  19 :   0.1667 0.0000 0.3333  plane waves:     326
 k-point  20 :   0.1667 0.1667-0.1667  plane waves:     326
 k-point  21 :   0.3333 0.1667 0.3333  plane waves:     326
 k-point  22 :   0.1667 0.3333 0.0000  plane waves:     326
 k-point  23 :   0.1667-0.1667-0.1667  plane waves:     326
 k-point  24 :   0.3333 0.3333 0.1667  plane waves:     326
 k-point  25 :   0.0000 0.1667 0.3333  plane waves:     326
 k-point  26 :  -0.1667 0.1667-0.1667  plane waves:     326
 k-point  27 :   0.1667 0.3333 0.3333  plane waves:     326
 k-point  28 :   0.3333 0.0000 0.1667  plane waves:     326
 k-point  29 :   0.5000 0.1667 0.0000  plane waves:     329
 k-point  30 :   0.0000 0.5000 0.1667  plane waves:     329
 k-point  31 :   0.1667 0.0000 0.5000  plane waves:     329
 k-point  32 :   0.1667 0.1667-0.3333  plane waves:     329
 k-point  33 :   0.5000 0.3333 0.5000  plane waves:     329
 k-point  34 :   0.1667 0.5000 0.0000  plane waves:     329
 k-point  35 :   0.3333-0.1667-0.1667  plane waves:     329
 k-point  36 :   0.5000 0.5000 0.3333  plane waves:     329
 k-point  37 :   0.0000 0.1667 0.5000  plane waves:     329
 k-point  38 :  -0.1667 0.3333-0.1667  plane waves:     329
 k-point  39 :   0.3333 0.5000 0.5000  plane waves:     329
 k-point  40 :   0.5000 0.0000 0.1667  plane waves:     329
 k-point  41 :  -0.3333 0.1667 0.0000  plane waves:     329
 k-point  42 :   0.0000-0.3333 0.1667  plane waves:     329
 k-point  43 :   0.1667 0.0000-0.3333  plane waves:     329
 k-point  44 :   0.1667 0.1667 0.5000  plane waves:     329
 k-point  45 :  -0.3333 0.5000-0.3333  plane waves:     329
 k-point  46 :   0.1667-0.3333 0.0000  plane waves:     329
 k-point  47 :   0.5000-0.1667-0.1667  plane waves:     329
 k-point  48 :  -0.3333-0.3333 0.5000  plane waves:     329
 k-point  49 :   0.0000 0.1667-0.3333  plane waves:     329
 k-point  50 :  -0.1667 0.5000-0.1667  plane waves:     329
 k-point  51 :   0.5000-0.3333-0.3333  plane waves:     329
 k-point  52 :  -0.3333 0.0000 0.1667  plane waves:     329
 k-point  53 :  -0.1667 0.1667 0.0000  plane waves:     325
 k-point  54 :   0.0000-0.1667 0.1667  plane waves:     325
 k-point  55 :   0.1667 0.0000-0.1667  plane waves:     325
 k-point  56 :   0.1667 0.1667 0.3333  plane waves:     325
 k-point  57 :  -0.1667-0.3333-0.1667  plane waves:     325
 k-point  58 :  -0.3333-0.1667-0.1667  plane waves:     325
 k-point  59 :   0.3333 0.3333 0.0000  plane waves:     323
 k-point  60 :   0.0000 0.3333 0.3333  plane waves:     323
 k-point  61 :   0.3333 0.0000 0.3333  plane waves:     323
 k-point  62 :   0.5000 0.3333 0.0000  plane waves:     332
 k-point  63 :   0.0000 0.5000 0.3333  plane waves:     332
 k-point  64 :   0.3333 0.0000 0.5000  plane waves:     332
 k-point  65 :   0.3333 0.3333-0.1667  plane waves:     332
 k-point  66 :   0.5000 0.1667 0.5000  plane waves:     332
 k-point  67 :   0.3333 0.5000 0.0000  plane waves:     332
 k-point  68 :   0.1667-0.3333-0.3333  plane waves:     332
 k-point  69 :   0.5000 0.5000 0.1667  plane waves:     332
 k-point  70 :   0.0000 0.3333 0.5000  plane waves:     332
 k-point  71 :  -0.3333 0.1667-0.3333  plane waves:     332
 k-point  72 :   0.1667 0.5000 0.5000  plane waves:     332
 k-point  73 :   0.5000 0.0000 0.3333  plane waves:     332
 k-point  74 :  -0.3333 0.3333 0.0000  plane waves:     329
 k-point  75 :   0.0000-0.3333 0.3333  plane waves:     329
 k-point  76 :   0.3333 0.0000-0.3333  plane waves:     329
 k-point  77 :   0.3333 0.3333-0.3333  plane waves:     329
 k-point  78 :  -0.3333 0.3333-0.3333  plane waves:     329
 k-point  79 :   0.3333-0.3333-0.3333  plane waves:     329
 k-point  80 :   0.5000 0.5000 0.0000  plane waves:     342
 k-point  81 :   0.0000 0.5000 0.5000  plane waves:     342
 k-point  82 :   0.5000 0.0000 0.5000  plane waves:     342
 k-point  83 :   0.5000 0.3333 0.1667  plane waves:     332
 k-point  84 :   0.1667 0.5000 0.3333  plane waves:     332
 k-point  85 :   0.3333 0.1667 0.5000  plane waves:     332
 k-point  86 :   0.3333 0.1667-0.1667  plane waves:     332
 k-point  87 :   0.5000 0.1667 0.3333  plane waves:     332
 k-point  88 :   0.1667-0.3333-0.1667  plane waves:     332
 k-point  89 :   0.1667 0.3333-0.1667  plane waves:     332
 k-point  90 :   0.1667-0.1667-0.3333  plane waves:     332
 k-point  91 :   0.3333 0.5000 0.1667  plane waves:     332
 k-point  92 :  -0.1667 0.1667-0.3333  plane waves:     332
 k-point  93 :  -0.3333 0.1667-0.1667  plane waves:     332
 k-point  94 :   0.1667 0.3333 0.5000  plane waves:     332
 k-point  95 :  -0.3333 0.3333 0.1667  plane waves:     324
 k-point  96 :   0.1667-0.3333 0.3333  plane waves:     324
 k-point  97 :   0.3333 0.1667-0.3333  plane waves:     324
 k-point  98 :  -0.3333 0.3333 0.5000  plane waves:     324
 k-point  99 :   0.1667 0.5000-0.1667  plane waves:     324
 k-point 100 :   0.3333-0.1667-0.3333  plane waves:     324
 k-point 101 :   0.5000-0.3333 0.3333  plane waves:     324
 k-point 102 :  -0.1667 0.1667 0.5000  plane waves:     324
 k-point 103 :  -0.3333 0.3333-0.1667  plane waves:     324
 k-point 104 :   0.3333 0.5000-0.3333  plane waves:     324
 k-point 105 :   0.5000-0.1667 0.1667  plane waves:     324
 k-point 106 :  -0.1667-0.3333 0.3333  plane waves:     324
 k-point 107 :  -0.3333 0.5000 0.1667  plane waves:     330
 k-point 108 :   0.1667-0.3333 0.5000  plane waves:     330
 k-point 109 :   0.5000 0.1667-0.3333  plane waves:     330
 k-point 110 :   0.5000 0.3333-0.1667  plane waves:     330
 k-point 111 :  -0.3333 0.1667 0.5000  plane waves:     330
 k-point 112 :   0.1667 0.5000-0.3333  plane waves:     330

 maximum and minimum number of plane-waves per node :       100       65

 maximum number of plane-waves:       342
 maximum index in each direction: 
   IXMAX=    5   IYMAX=    5   IZMAX=    5
   IXMIN=   -5   IYMIN=   -5   IZMIN=   -5


 parallel 3D FFT for wavefunctions:
    minimum data exchange during FFTs selected (reduces bandwidth)
 parallel 3D FFT for charge:
    minimum data exchange during FFTs selected (reduces bandwidth)


 total amount of memory used by VASP MPI-rank0    32121. kBytes
=======================================================================

   base      :      30000. kBytes
   nonl-proj :       1356. kBytes
   fftplans  :         80. kBytes
   grid      :        111. kBytes
   one-center:         15. kBytes
   wavefun   :        559. kBytes
 
     INWAV:  cpu time    0.0000: real time    0.0000
 Broyden mixing: mesh for mixing (old mesh)
   NGX =  9   NGY =  9   NGZ =  9
  (NGX  = 28   NGY  = 28   NGZ  = 28)
  gives a total of    729 points

 initial charge density was supplied:
 charge density of overlapping atoms calculated
 number of electron      10.0000000 magnetization 
 keeping initial charge density in first step


--------------------------------------------------------------------------------------------------------


 Maximum index for augmentation-charges           650 (set IRDMAX)


--------------------------------------------------------------------------------------------------------


 First call to EWALD:  gamma=   0.691
 Maximum number of real-space cells 3x 3x 3
 Maximum number of reciprocal cells 3x 3x 3

    FEWALD:  cpu time    0.0010: real time    0.0010


--------------------------------------- Iteration      1(   1)  ---------------------------------------


    POTLOK:  cpu time    0.0042: real time    0.0042
    SETDIJ:  cpu time    0.0052: real time    0.0052
     EDDAV:  cpu time    0.4532: real time    0.4538
       DOS:  cpu time    0.0014: real time    0.0014
    --------------------------------------------
      LOOP:  cpu time    0.4639: real time    0.4645

 eigenvalue-minimisations  :  2888
 total energy-change (2. order) : 0.3184861E+02  (-0.4493501E+03)
 number of electron      10.0000000 magnetization 
 augmentation part       10.0000000 magnetization 

 Free energy of the ion-electron system (eV)
  ---------------------------------------------------
  alpha Z        PSCENC =        56.33457292
  Ewald energy   TEWEN  =      -810.76325997
  -Hartree energ DENC   =       -81.72064944
  -exchange      EXHF   =         0.00000000
  -V(xc)+E(xc)   XCENC  =         3.05735506
  PAW double counting   =       696.70595042     -667.45827301
  entropy T*S    EENTRO =        -0.00163671
  eigenvalues    EBANDS =       107.37533902
  atomic energy  EATOM  =       728.31920932
  Solvation  Ediel_sol  =         0.00000000
  ---------------------------------------------------
  free energy    TOTEN  =        31.84860761 eV

  energy without entropy =       31.85024433  energy(sigma->0) =       31.84942597


--------------------------------------------------------------------------------------------------------




--------------------------------------- Iteration      1(   2)  ---------------------------------------


     EDDAV:  cpu time    0.4709: real time    0.4742
       DOS:  cpu time    0.0015: real time    0.0015
    --------------------------------------------
      LOOP:  cpu time    0.4724: real time    0.4757

 eigenvalue-minimisations  :  3200
 total energy-change (2. order) :-0.3720081E+02  (-0.3546563E+02)
 number of electron      10.0000000 magnetization 
 augmentation part       10.0000000 magnetization 

 Free energy of the ion-electron system (eV)
  ---------------------------------------------------
  alpha Z        PSCENC =        56.33457292
  Ewald energy   TEWEN  =      -810.76325997
  -Hartree energ DENC   =       -81.72064944
  -exchange      EXHF   =         0.00000000
  -V(xc)+E(xc)   XCENC  =         3.05735506
  PAW double counting   =       696.70595042     -667.45827301
  entropy T*S    EENTRO =        -0.00193604
  eigenvalues    EBANDS =        70.17482785
  atomic energy  EATOM  =       728.31920932
  Solvation  Ediel_sol  =         0.00000000
  ---------------------------------------------------
  free energy    TOTEN  =        -5.35220289 eV

  energy without entropy =       -5.35026685  energy(sigma->0) =       -5.35123487


--------------------------------------------------------------------------------------------------------




--------------------------------------- Iteration      1(   3)  ---------------------------------------


     EDDAV:  cpu time    0.4854: real time    0.4861
       DOS:  cpu time    0.0016: real time    0.0016
    --------------------------------------------
      LOOP:  cpu time    0.4870: real time    0.4877

 eigenvalue-minimisations  :  3264
 total energy-change (2. order) :-0.5014068E+00  (-0.5004453E+00)
 number of electron      10.0000000 magnetization 
 augmentation part       10.0000000 magnetization 

 Free energy of the ion-electron system (eV)
  ---------------------------------------------------
  alpha Z        PSCENC =        56.33457292
  Ewald energy   TEWEN  =      -810.76325997
  -Hartree energ DENC   =       -81.72064944
  -exchange      EXHF   =         0.00000000
  -V(xc)+E(xc)   XCENC  =         3.05735506
  PAW double counting   =       696.70595042     -667.45827301
  entropy T*S    EENTRO =        -0.00206951
  eigenvalues    EBANDS =        69.67355456
  atomic energy  EATOM  =       728.31920932
  Solvation  Ediel_sol  =         0.00000000
  ---------------------------------------------------
  free energy    TOTEN  =        -5.85360965 eV

  energy without entropy =       -5.85154013  energy(sigma->0) =       -5.85257489


--------------------------------------------------------------------------------------------------------




--------------------------------------- Iteration      1(   4)  ---------------------------------------


     EDDAV:  cpu time    0.4865: real time    0.4927
       DOS:  cpu time    0.0014: real time    0.0014
    --------------------------------------------
      LOOP:  cpu time    0.4879: real time    0.4942

 eigenvalue-minimisations  :  3312
 total energy-change (2. order) :-0.2148333E-02  (-0.2148199E-02)
 number of electron      10.0000000 magnetization 
 augmentation part       10.0000000 magnetization 

 Free energy of the ion-electron system (eV)
  ---------------------------------------------------
  alpha Z        PSCENC =        56.33457292
  Ewald energy   TEWEN  =      -810.76325997
  -Hartree energ DENC   =       -81.72064944
  -exchange      EXHF   =         0.00000000
  -V(xc)+E(xc)   XCENC  =         3.05735506
  PAW double counting   =       696.70595042     -667.45827301
  entropy T*S    EENTRO =        -0.00206721
  eigenvalues    EBANDS =        69.67140392
  atomic energy  EATOM  =       728.31920932
  Solvation  Ediel_sol  =         0.00000000
  ---------------------------------------------------
  free energy    TOTEN  =        -5.85575798 eV

  energy without entropy =       -5.85369077  energy(sigma->0) =       -5.85472438


--------------------------------------------------------------------------------------------------------




--------------------------------------- Iteration      1(   5)  ---------------------------------------


     EDDAV:  cpu time    0.4858: real time    0.4920
       DOS:  cpu time    0.0015: real time    0.0015
    CHARGE:  cpu time    0.0078: real time    0.0079
    MIXING:  cpu time    0.0002: real time    0.0002
    --------------------------------------------
      LOOP:  cpu time    0.4954: real time    0.5016

 eigenvalue-minimisations  :  3360
 total energy-change (2. order) :-0.1914874E-04  (-0.1914778E-04)
 number of electron      10.0000008 magnetization 
 augmentation part        2.9397766 magnetization 

 Broyden mixing:
  rms(total) = 0.88401E+00    rms(broyden)= 0.88400E+00
  rms(prec ) = 0.16698E+01
  weight for this iteration     100.00

 Free energy of the ion-electron system (eV)
  ---------------------------------------------------
  alpha Z        PSCENC =        56.33457292
  Ewald energy   TEWEN  =      -810.76325997
  -Hartree energ DENC   =       -81.72064944
  -exchange      EXHF   =         0.00000000
  -V(xc)+E(xc)   XCENC  =         3.05735506
  PAW double counting   =       696.70595042     -667.45827301
  entropy T*S    EENTRO =        -0.00206718
  eigenvalues    EBANDS =        69.67138475
  atomic energy  EATOM  =       728.31920932
  Solvation  Ediel_sol  =         0.00000000
  ---------------------------------------------------
  free energy    TOTEN  =        -5.85577713 eV

  energy without entropy =       -5.85370995  energy(sigma->0) =       -5.85474354


--------------------------------------------------------------------------------------------------------




--------------------------------------- Iteration      1(   6)  ---------------------------------------


    POTLOK:  cpu time    0.0034: real time    0.0034
    SETDIJ:  cpu time    0.0042: real time    0.0042
     EDDAV:  cpu time    0.4395: real time    0.4457
       DOS:  cpu time    0.0015: real time    0.0015
    CHARGE:  cpu time    0.0072: real time    0.0072
    MIXING:  cpu time    0.0003: real time    0.0003
    --------------------------------------------
      LOOP:  cpu time    0.4560: real time    0.4622

 eigenvalue-minimisations  :  2928
 total energy-change (2. order) : 0.3264298E+00  (-0.7794689E-01)
 number of electron      10.0000008 magnetization 
 augmentation part        3.0689993 magnetization 

 Broyden mixing:
  rms(total) = 0.47458E+00    rms(broyden)= 0.47457E+00
  rms(prec ) = 0.63026E+00
  weight for this iteration     100.00

 eigenvalues of (default mixing * dielectric matrix)
  average eigenvalue GAMMA=   1.8894
  1.8894

 Free energy of the ion-electron system (eV)
  ---------------------------------------------------
  alpha Z        PSCENC =        56.33457292
  Ewald energy   TEWEN  =      -810.76325997
  -Hartree energ DENC   =       -74.52480678
  -exchange      EXHF   =         0.00000000
  -V(xc)+E(xc)   XCENC  =         2.81853723
  PAW double counting   =       756.39510957     -728.46965880
  entropy T*S    EENTRO =        -0.00245536
  eigenvalues    EBANDS =        64.36340457
  atomic energy  EATOM  =       728.31920932
  Solvation  Ediel_sol  =         0.00000000
  ---------------------------------------------------
  free energy    TOTEN  =        -5.52934730 eV

  energy without entropy =       -5.52689194  energy(sigma->0) =       -5.52811962


--------------------------------------------------------------------------------------------------------




--------------------------------------- Iteration      1(   7)  ---------------------------------------


    POTLOK:  cpu time    0.0031: real time    0.0032
    SETDIJ:  cpu time    0.0038: real time    0.0038
     EDDAV:  cpu time    0.4655: real time    0.4735
       DOS:  cpu time    0.0020: real time    0.0020
    CHARGE:  cpu time    0.0078: real time    0.0078
    MIXING:  cpu time    0.0004: real time    0.0004
    --------------------------------------------
      LOOP:  cpu time    0.4827: real time    0.4907

 eigenvalue-minimisations  :  3196
 total energy-change (2. order) : 0.2659212E-01  (-0.1225551E-01)
 number of electron      10.0000009 magnetization 
 augmentation part        3.1342751 magnetization 

 Broyden mixing:
  rms(total) = 0.23588E+00    rms(broyden)= 0.23588E+00
  rms(prec ) = 0.24808E+00
  weight for this iteration     100.00

 eigenvalues of (default mixing * dielectric matrix)
  average eigenvalue GAMMA=   2.4690
  1.3833  3.5547

 Free energy of the ion-electron system (eV)
  ---------------------------------------------------
  alpha Z        PSCENC =        56.33457292
  Ewald energy   TEWEN  =      -810.76325997
  -Hartree energ DENC   =       -71.54929386
  -exchange      EXHF   =         0.00000000
  -V(xc)+E(xc)   XCENC  =         2.72134308
  PAW double counting   =       810.90967588     -783.82444126
  entropy T*S    EENTRO =        -0.00329977
  eigenvalues    EBANDS =        62.35273849
  atomic energy  EATOM  =       728.31920932
  Solvation  Ediel_sol  =         0.00000000
  ---------------------------------------------------
  free energy    TOTEN  =        -5.50275518 eV

  energy without entropy =       -5.49945541  energy(sigma->0) =       -5.50110530


--------------------------------------------------------------------------------------------------------




--------------------------------------- Iteration      1(   8)  ---------------------------------------


    POTLOK:  cpu time    0.0032: real time    0.0033
    SETDIJ:  cpu time    0.0037: real time    0.0038
     EDDAV:  cpu time    0.4400: real time    0.4466
       DOS:  cpu time    0.0016: real time    0.0016
    CHARGE:  cpu time    0.0075: real time    0.0076
    MIXING:  cpu time    0.0003: real time    0.0003
    --------------------------------------------
      LOOP:  cpu time    0.4563: real time    0.4631

 eigenvalue-minimisations  :  2840
 total energy-change (2. order) :-0.6973107E-02  (-0.8211004E-02)
 number of electron      10.0000008 magnetization 
 augmentation part        3.0855093 magnetization 

 Broyden mixing:
  rms(total) = 0.14565E+00    rms(broyden)= 0.14565E+00
  rms(prec ) = 0.25972E+00
  weight for this iteration     100.00

 eigenvalues of (default mixing * dielectric matrix)
  average eigenvalue GAMMA=   1.5429
  2.5717  1.2113  0.8456

 Free energy of the ion-electron system (eV)
  ---------------------------------------------------
  alpha Z        PSCENC =        56.33457292
  Ewald energy   TEWEN  =      -810.76325997
  -Hartree energ DENC   =       -72.57522638
  -exchange      EXHF   =         0.00000000
  -V(xc)+E(xc)   XCENC  =         2.75247692
  PAW double counting   =       873.67360566     -846.97072507
  entropy T*S    EENTRO =        -0.00237999
  eigenvalues    EBANDS =        63.72199830
  atomic energy  EATOM  =       728.31920932
  Solvation  Ediel_sol  =         0.00000000
  ---------------------------------------------------
  free energy    TOTEN  =        -5.50972829 eV

  energy without entropy =       -5.50734829  energy(sigma->0) =       -5.50853829


--------------------------------------------------------------------------------------------------------




--------------------------------------- Iteration      1(   9)  ---------------------------------------


    POTLOK:  cpu time    0.0032: real time    0.0032
    SETDIJ:  cpu time    0.0037: real time    0.0037
     EDDAV:  cpu time    0.4695: real time    0.4730
       DOS:  cpu time    0.0017: real time    0.0017
    CHARGE:  cpu time    0.0074: real time    0.0074
    MIXING:  cpu time    0.0003: real time    0.0003
    --------------------------------------------
      LOOP:  cpu time    0.4857: real time    0.4893

 eigenvalue-minimisations  :  2824
 total energy-change (2. order) : 0.9749019E-02  (-0.2657037E-02)
 number of electron      10.0000009 magnetization 
 augmentation part        3.1170217 magnetization 

 Broyden mixing:
  rms(total) = 0.12328E-01    rms(broyden)= 0.12324E-01
  rms(prec ) = 0.21404E-01
  weight for this iteration     100.00

 eigenvalues of (default mixing * dielectric matrix)
  average eigenvalue GAMMA=   1.7475
  2.4322  2.4322  1.0629  1.0629

 Free energy of the ion-electron system (eV)
  ---------------------------------------------------
  alpha Z        PSCENC =        56.33457292
  Ewald energy   TEWEN  =      -810.76325997
  -Hartree energ DENC   =       -71.61004094
  -exchange      EXHF   =         0.00000000
  -V(xc)+E(xc)   XCENC  =         2.72188512
  PAW double counting   =       855.99708319     -829.26280008
  entropy T*S    EENTRO =        -0.00325927
  eigenvalues    EBANDS =        62.76663045
  atomic energy  EATOM  =       728.31920932
  Solvation  Ediel_sol  =         0.00000000
  ---------------------------------------------------
  free energy    TOTEN  =        -5.49997927 eV

  energy without entropy =       -5.49671999  energy(sigma->0) =       -5.49834963


--------------------------------------------------------------------------------------------------------




--------------------------------------- Iteration      1(  10)  ---------------------------------------


    POTLOK:  cpu time    0.0033: real time    0.0034
    SETDIJ:  cpu time    0.0037: real time    0.0037
     EDDAV:  cpu time    0.4497: real time    0.4505
       DOS:  cpu time    0.0016: real time    0.0016
    --------------------------------------------
      LOOP:  cpu time    0.4584: real time    0.4593

 eigenvalue-minimisations  :  2864
 total energy-change (2. order) : 0.3325420E-04  (-0.1892871E-04)
 number of electron      10.0000009 magnetization 
 augmentation part        3.1170217 magnetization 

 Free energy of the ion-electron system (eV)
  ---------------------------------------------------
  alpha Z        PSCENC =        56.33457292
  Ewald energy   TEWEN  =      -810.76325997
  -Hartree energ DENC   =       -71.54924236
  -exchange      EXHF   =         0.00000000
  -V(xc)+E(xc)   XCENC  =         2.71989100
  PAW double counting   =       855.60418641     -828.86561471
  entropy T*S    EENTRO =        -0.00330957
  eigenvalues    EBANDS =        62.70362095
  atomic energy  EATOM  =       728.31920932
  Solvation  Ediel_sol  =         0.00000000
  ---------------------------------------------------
  free energy    TOTEN  =        -5.49994601 eV

  energy without entropy =       -5.49663644  energy(sigma->0) =       -5.49829123


--------------------------------------------------------------------------------------------------------




 average (electrostatic) potential at core
  the test charge radii are     1.2059
  (the norm of the test charge is              1.0000)
       1 -64.5661
 
 
 
 E-fermi :   9.3202     XC(G=0): -12.7597     alpha+bet :-14.8488

 Fermi energy:         9.3202453021

 k-point     1 :       0.0000    0.0000    0.0000
  band No.  band energies     occupation 
      1       0.3428      2.00000
      2       6.1559      2.00000
      3       6.1560      2.00000
      4       6.1560      2.00000
      5       7.9377      2.00000
      6       7.9377      2.00000
      7      24.1899      0.00000
      8      28.5465      0.00000
      9      28.5467      0.00000
     10      28.5467      0.00000
     11      33.4886      0.00000
     12      39.0964      0.00000

 k-point     2 :       0.1667    0.0000    0.0000
  band No.  band energies     occupation 
      1       1.2889      2.00000
      2       5.8667      2.00000
      3       6.4324      2.00000
      4       6.4325      2.00000
      5       7.8619      2.00000
      6       7.8619      2.00000
      7      24.6743      0.00000
      8      25.4197      0.00000
      9      29.8248      0.00000
     10      29.8250      0.00000
     11      32.8520      0.00000
     12      35.2404      0.00000

 k-point     3 :       0.0000    0.1667    0.0000
  band No.  band energies     occupation 
      1       1.2889      2.00000
      2       5.8667      2.00000
      3       6.4324      2.00000
      4       6.4325      2.00000
      5       7.8619      2.00000
      6       7.8619      2.00000
      7      24.6743      0.00000
      8      25.4197      0.00000
      9      29.8248      0.00000
     10      29.8250      0.00000
     11      32.8520      0.00000
     12      35.2403      0.00000

 k-point     4 :       0.0000    0.0000    0.1667
  band No.  band energies     occupation 
      1       1.2889      2.00000
      2       5.8667      2.00000
      3       6.4324      2.00000
      4       6.4325      2.00000
      5       7.8619      2.00000
      6       7.8619      2.00000
      7      24.6743      0.00000
      8      25.4197      0.00000
      9      29.8248      0.00000
     10      29.8250      0.00000
     11      32.8520      0.00000
     12      35.2404      0.00000

 k-point     5 :       0.1667    0.1667    0.1667
  band No.  band energies     occupation 
      1       1.2889      2.00000
      2       5.8667      2.00000
      3       6.4324      2.00000
      4       6.4324      2.00000
      5       7.8620      2.00000
      6       7.8620      2.00000
      7      24.6741      0.00000
      8      25.4197      0.00000
      9      29.8250      0.00000
     10      29.8250      0.00000
     11      32.8520      0.00000
     12      35.2403      0.00000

 k-point     6 :       0.3333    0.0000    0.0000
  band No.  band energies     occupation 
      1       2.8902      2.00000
      2       6.3295      2.00000
      3       6.3296      2.00000
      4       6.6385      2.00000
      5       8.6136      2.00000
      6       8.6137      2.00000
      7      18.8429      0.00000
      8      24.7120      0.00000
      9      29.4873      0.00000
     10      29.4874      0.00000
     11      33.3802      0.00000
     12      33.8633      0.00000

 k-point     7 :       0.0000    0.3333    0.0000
  band No.  band energies     occupation 
      1       2.8902      2.00000
      2       6.3295      2.00000
      3       6.3296      2.00000
      4       6.6385      2.00000
      5       8.6136      2.00000
      6       8.6137      2.00000
      7      18.8429      0.00000
      8      24.7120      0.00000
      9      29.4873      0.00000
     10      29.4874      0.00000
     11      33.3801      0.00000
     12      33.8633      0.00000

 k-point     8 :       0.0000    0.0000    0.3333
  band No.  band energies     occupation 
      1       2.8902      2.00000
      2       6.3295      2.00000
      3       6.3296      2.00000
      4       6.6385      2.00000
      5       8.6136      2.00000
      6       8.6137      2.00000
      7      18.8429      0.00000
      8      24.7120      0.00000
      9      29.4873      0.00000
     10      29.4874      0.00000
     11      33.3801      0.00000
     12      33.8633      0.00000

 k-point     9 :       0.3333    0.3333    0.3333
  band No.  band energies     occupation 
      1       2.8901      2.00000
      2       6.3295      2.00000
      3       6.3295      2.00000
      4       6.6385      2.00000
      5       8.6137      2.00000
      6       8.6137      2.00000
      7      18.8427      0.00000
      8      24.7121      0.00000
      9      29.4874      0.00000
     10      29.4875      0.00000
     11      33.3801      0.00000
     12      33.8633      0.00000

 k-point    10 :       0.5000    0.0000    0.0000
  band No.  band energies     occupation 
      1       3.1052      2.00000
      2       6.1136      2.00000
      3       6.1137      2.00000
      4       9.3123      1.17736
      5       9.3124      1.17641
      6       9.3237      0.92135
      7      14.3657      0.00000
      8      23.7288      0.00000
      9      27.5153      0.00000
     10      27.5155      0.00000
     11      35.8265      0.00000
     12      35.8265      0.00000

 k-point    11 :       0.0000    0.5000    0.0000
  band No.  band energies     occupation 
      1       3.1052      2.00000
      2       6.1136      2.00000
      3       6.1137      2.00000
      4       9.3123      1.17735
      5       9.3124      1.17640
      6       9.3237      0.92130
      7      14.3657      0.00000
      8      23.7288      0.00000
      9      27.5153      0.00000
     10      27.5155      0.00000
     11      35.8265      0.00000
     12      35.8265      0.00000

 k-point    12 :       0.0000    0.0000    0.5000
  band No.  band energies     occupation 
      1       3.1052      2.00000
      2       6.1136      2.00000
      3       6.1137      2.00000
      4       9.3123      1.17735
      5       9.3124      1.17640
      6       9.3237      0.92125
      7      14.3657      0.00000
      8      23.7288      0.00000
      9      27.5153      0.00000
     10      27.5155      0.00000
     11      35.8265      0.00000
     12      35.8265      0.00000

 k-point    13 :       0.5000    0.5000    0.5000
  band No.  band energies     occupation 
      1       3.1051      2.00000
      2       6.1136      2.00000
      3       6.1136      2.00000
      4       9.3123      1.17749
      5       9.3123      1.17747
      6       9.3236      0.92361
      7      14.3656      0.00000
      8      23.7289      0.00000
      9      27.5155      0.00000
     10      27.5155      0.00000
     11      35.8266      0.00000
     12      35.8266      0.00000

 k-point    14 :       0.1667    0.1667    0.0000
  band No.  band energies     occupation 
      1       1.6158      2.00000
      2       5.4584      2.00000
      3       6.7937      2.00000
      4       6.7938      2.00000
      5       7.2070      2.00000
      6       8.2474      2.00000
      7      25.9345      0.00000
      8      26.6958      0.00000
      9      27.6343      0.00000
     10      27.6345      0.00000
     11      33.1134      0.00000
     12      34.9561      0.00000

 k-point    15 :       0.0000    0.1667    0.1667
  band No.  band energies     occupation 
      1       1.6158      2.00000
      2       5.4584      2.00000
      3       6.7937      2.00000
      4       6.7938      2.00000
      5       7.2070      2.00000
      6       8.2474      2.00000
      7      25.9345      0.00000
      8      26.6958      0.00000
      9      27.6343      0.00000
     10      27.6345      0.00000
     11      33.1134      0.00000
     12      34.9561      0.00000

 k-point    16 :       0.1667    0.0000    0.1667
  band No.  band energies     occupation 
      1       1.6158      2.00000
      2       5.4584      2.00000
      3       6.7937      2.00000
      4       6.7938      2.00000
      5       7.2070      2.00000
      6       8.2474      2.00000
      7      25.9345      0.00000
      8      26.6958      0.00000
      9      27.6343      0.00000
     10      27.6345      0.00000
     11      33.1134      0.00000
     12      34.9561      0.00000

 k-point    17 :       0.3333    0.1667    0.0000
  band No.  band energies     occupation 
      1       3.2179      2.00000
      2       5.1751      2.00000
      3       6.2665      2.00000
      4       7.0675      2.00000
      5       8.4538      2.00000
      6       8.8556      2.00000
      7      21.3242      0.00000
      8      25.9518      0.00000
      9      26.1920      0.00000
     10      28.1788      0.00000
     11      32.1122      0.00000
     12      34.7258      0.00000

 k-point    18 :       0.0000    0.3333    0.1667
  band No.  band energies     occupation 
      1       3.2179      2.00000
      2       5.1751      2.00000
      3       6.2665      2.00000
      4       7.0675      2.00000
      5       8.4538      2.00000
      6       8.8556      2.00000
      7      21.3242      0.00000
      8      25.9518      0.00000
      9      26.1920      0.00000
     10      28.1788      0.00000
     11      32.1122      0.00000
     12      34.7258      0.00000

 k-point    19 :       0.1667    0.0000    0.3333
  band No.  band energies     occupation 
      1       3.2179      2.00000
      2       5.1751      2.00000
      3       6.2665      2.00000
      4       7.0675      2.00000
      5       8.4538      2.00000
      6       8.8556      2.00000
      7      21.3242      0.00000
      8      25.9518      0.00000
      9      26.1920      0.00000
     10      28.1788      0.00000
     11      32.1121      0.00000
     12      34.7258      0.00000

 k-point    20 :       0.1667    0.1667   -0.1667
  band No.  band energies     occupation 
      1       3.2179      2.00000
      2       5.1752      2.00000
      3       6.2665      2.00000
      4       7.0676      2.00000
      5       8.4538      2.00000
      6       8.8556      2.00000
      7      21.3242      0.00000
      8      25.9518      0.00000
      9      26.1921      0.00000
     10      28.1789      0.00000
     11      32.1119      0.00000
     12      34.7259      0.00000

 k-point    21 :       0.3333    0.1667    0.3333
  band No.  band energies     occupation 
      1       3.2179      2.00000
      2       5.1752      2.00000
      3       6.2665      2.00000
      4       7.0675      2.00000
      5       8.4538      2.00000
      6       8.8556      2.00000
      7      21.3240      0.00000
      8      25.9518      0.00000
      9      26.1921      0.00000
     10      28.1789      0.00000
     11      32.1121      0.00000
     12      34.7259      0.00000

 k-point    22 :       0.1667    0.3333    0.0000
  band No.  band energies     occupation 
      1       3.2179      2.00000
      2       5.1751      2.00000
      3       6.2665      2.00000
      4       7.0675      2.00000
      5       8.4538      2.00000
      6       8.8556      2.00000
      7      21.3242      0.00000
      8      25.9518      0.00000
      9      26.1920      0.00000
     10      28.1788      0.00000
     11      32.1121      0.00000
     12      34.7258      0.00000

 k-point    23 :       0.1667   -0.1667   -0.1667
  band No.  band energies     occupation 
      1       3.2179      2.00000
      2       5.1752      2.00000
      3       6.2665      2.00000
      4       7.0676      2.00000
      5       8.4538      2.00000
      6       8.8556      2.00000
      7      21.3242      0.00000
      8      25.9518      0.00000
      9      26.1921      0.00000
     10      28.1789      0.00000
     11      32.1119      0.00000
     12      34.7260      0.00000

 k-point    24 :       0.3333    0.3333    0.1667
  band No.  band energies     occupation 
      1       3.2179      2.00000
      2       5.1752      2.00000
      3       6.2665      2.00000
      4       7.0675      2.00000
      5       8.4538      2.00000
      6       8.8556      2.00000
      7      21.3240      0.00000
      8      25.9518      0.00000
      9      26.1921      0.00000
     10      28.1789      0.00000
     11      32.1121      0.00000
     12      34.7259      0.00000

 k-point    25 :       0.0000    0.1667    0.3333
  band No.  band energies     occupation 
      1       3.2179      2.00000
      2       5.1751      2.00000
      3       6.2665      2.00000
      4       7.0675      2.00000
      5       8.4538      2.00000
      6       8.8556      2.00000
      7      21.3242      0.00000
      8      25.9518      0.00000
      9      26.1920      0.00000
     10      28.1788      0.00000
     11      32.1122      0.00000
     12      34.7258      0.00000

 k-point    26 :      -0.1667    0.1667   -0.1667
  band No.  band energies     occupation 
      1       3.2179      2.00000
      2       5.1752      2.00000
      3       6.2665      2.00000
      4       7.0676      2.00000
      5       8.4538      2.00000
      6       8.8556      2.00000
      7      21.3242      0.00000
      8      25.9518      0.00000
      9      26.1921      0.00000
     10      28.1789      0.00000
     11      32.1119      0.00000
     12      34.7260      0.00000

 k-point    27 :       0.1667    0.3333    0.3333
  band No.  band energies     occupation 
      1       3.2179      2.00000
      2       5.1752      2.00000
      3       6.2665      2.00000
      4       7.0675      2.00000
      5       8.4538      2.00000
      6       8.8556      2.00000
      7      21.3240      0.00000
      8      25.9518      0.00000
      9      26.1922      0.00000
     10      28.1789      0.00000
     11      32.1121      0.00000
     12      34.7259      0.00000

 k-point    28 :       0.3333    0.0000    0.1667
  band No.  band energies     occupation 
      1       3.2179      2.00000
[...]
      1       4.5069      2.00000
      2       4.8943      2.00000
      3       5.7147      2.00000
      4       8.0270      2.00000
      5       8.4514      2.00000
      6      11.0546      0.00000
      7      19.3105      0.00000
      8      21.1657      0.00000
      9      24.2168      0.00000
     10      30.5955      0.00000
     11      30.7945      0.00000
     12      36.1451      0.00000

 k-point    90 :       0.1667   -0.1667   -0.3333
  band No.  band energies     occupation 
      1       4.5069      2.00000
      2       4.8943      2.00000
      3       5.7147      2.00000
      4       8.0270      2.00000
      5       8.4514      2.00000
      6      11.0546      0.00000
      7      19.3105      0.00000
      8      21.1657      0.00000
      9      24.2168      0.00000
     10      30.5955      0.00000
     11      30.7945      0.00000
     12      36.1451      0.00000

 k-point    91 :       0.3333    0.5000    0.1667
  band No.  band energies     occupation 
      1       4.5069      2.00000
      2       4.8943      2.00000
      3       5.7147      2.00000
      4       8.0270      2.00000
      5       8.4514      2.00000
      6      11.0545      0.00000
      7      19.3105      0.00000
      8      21.1657      0.00000
      9      24.2169      0.00000
     10      30.5956      0.00000
     11      30.7945      0.00000
     12      36.1452      0.00000

 k-point    92 :      -0.1667    0.1667   -0.3333
  band No.  band energies     occupation 
      1       4.5069      2.00000
      2       4.8943      2.00000
      3       5.7147      2.00000
      4       8.0270      2.00000
      5       8.4514      2.00000
      6      11.0546      0.00000
      7      19.3105      0.00000
      8      21.1657      0.00000
      9      24.2168      0.00000
     10      30.5955      0.00000
     11      30.7945      0.00000
     12      36.1451      0.00000

 k-point    93 :      -0.3333    0.1667   -0.1667
  band No.  band energies     occupation 
      1       4.5069      2.00000
      2       4.8943      2.00000
      3       5.7147      2.00000
      4       8.0270      2.00000
      5       8.4514      2.00000
      6      11.0546      0.00000
      7      19.3105      0.00000
      8      21.1657      0.00000
      9      24.2168      0.00000
     10      30.5955      0.00000
     11      30.7945      0.00000
     12      36.1451      0.00000

 k-point    94 :       0.1667    0.3333    0.5000
  band No.  band energies     occupation 
      1       4.5069      2.00000
      2       4.8943      2.00000
      3       5.7147      2.00000
      4       8.0270      2.00000
      5       8.4514      2.00000
      6      11.0545      0.00000
      7      19.3105      0.00000
      8      21.1657      0.00000
      9      24.2169      0.00000
     10      30.5956      0.00000
     11      30.7945      0.00000
     12      36.1452      0.00000

 k-point    95 :      -0.3333    0.3333    0.1667
  band No.  band energies     occupation 
      1       4.8317      2.00000
      2       4.9707      2.00000
      3       5.9501      2.00000
      4       7.5782      2.00000
      5       9.1794      1.99993
      6      14.3614      0.00000
      7      14.9809      0.00000
      8      20.6839      0.00000
      9      22.5026      0.00000
     10      29.4852      0.00000
     11      33.5286      0.00000
     12      38.2059      0.00000

 k-point    96 :       0.1667   -0.3333    0.3333
  band No.  band energies     occupation 
      1       4.8317      2.00000
      2       4.9707      2.00000
      3       5.9501      2.00000
      4       7.5781      2.00000
      5       9.1794      1.99993
      6      14.3614      0.00000
      7      14.9809      0.00000
      8      20.6838      0.00000
      9      22.5026      0.00000
     10      29.4852      0.00000
     11      33.5286      0.00000
     12      38.2057      0.00000

 k-point    97 :       0.3333    0.1667   -0.3333
  band No.  band energies     occupation 
      1       4.8317      2.00000
      2       4.9707      2.00000
      3       5.9501      2.00000
      4       7.5781      2.00000
      5       9.1794      1.99993
      6      14.3614      0.00000
      7      14.9809      0.00000
      8      20.6838      0.00000
      9      22.5026      0.00000
     10      29.4852      0.00000
     11      33.5286      0.00000
     12      38.2058      0.00000

 k-point    98 :      -0.3333    0.3333    0.5000
  band No.  band energies     occupation 
      1       4.8317      2.00000
      2       4.9707      2.00000
      3       5.9500      2.00000
      4       7.5782      2.00000
      5       9.1793      1.99993
      6      14.3613      0.00000
      7      14.9808      0.00000
      8      20.6839      0.00000
      9      22.5027      0.00000
     10      29.4853      0.00000
     11      33.5286      0.00000
     12      38.2058      0.00000

 k-point    99 :       0.1667    0.5000   -0.1667
  band No.  band energies     occupation 
      1       4.8317      2.00000
      2       4.9707      2.00000
      3       5.9501      2.00000
      4       7.5781      2.00000
      5       9.1793      1.99993
      6      14.3613      0.00000
      7      14.9809      0.00000
      8      20.6839      0.00000
      9      22.5026      0.00000
     10      29.4852      0.00000
     11      33.5286      0.00000
     12      38.2059      0.00000

 k-point   100 :       0.3333   -0.1667   -0.3333
  band No.  band energies     occupation 
      1       4.8317      2.00000
      2       4.9707      2.00000
      3       5.9501      2.00000
      4       7.5782      2.00000
      5       9.1794      1.99993
      6      14.3614      0.00000
      7      14.9809      0.00000
      8      20.6838      0.00000
      9      22.5026      0.00000
     10      29.4852      0.00000
     11      33.5286      0.00000
     12      38.2058      0.00000

 k-point   101 :       0.5000   -0.3333    0.3333
  band No.  band energies     occupation 
      1       4.8317      2.00000
      2       4.9707      2.00000
      3       5.9500      2.00000
      4       7.5782      2.00000
      5       9.1793      1.99993
      6      14.3613      0.00000
      7      14.9808      0.00000
      8      20.6839      0.00000
      9      22.5027      0.00000
     10      29.4853      0.00000
     11      33.5286      0.00000
     12      38.2058      0.00000

 k-point   102 :      -0.1667    0.1667    0.5000
  band No.  band energies     occupation 
      1       4.8317      2.00000
      2       4.9707      2.00000
      3       5.9501      2.00000
      4       7.5781      2.00000
      5       9.1793      1.99993
      6      14.3613      0.00000
      7      14.9809      0.00000
      8      20.6839      0.00000
      9      22.5026      0.00000
     10      29.4852      0.00000
     11      33.5286      0.00000
     12      38.2059      0.00000

 k-point   103 :      -0.3333    0.3333   -0.1667
  band No.  band energies     occupation 
      1       4.8317      2.00000
      2       4.9707      2.00000
      3       5.9501      2.00000
      4       7.5782      2.00000
      5       9.1794      1.99993
      6      14.3614      0.00000
      7      14.9809      0.00000
      8      20.6838      0.00000
      9      22.5026      0.00000
     10      29.4852      0.00000
     11      33.5286      0.00000
     12      38.2058      0.00000

 k-point   104 :       0.3333    0.5000   -0.3333
  band No.  band energies     occupation 
      1       4.8317      2.00000
      2       4.9707      2.00000
      3       5.9500      2.00000
      4       7.5782      2.00000
      5       9.1793      1.99993
      6      14.3613      0.00000
      7      14.9808      0.00000
      8      20.6839      0.00000
      9      22.5027      0.00000
     10      29.4853      0.00000
     11      33.5286      0.00000
     12      38.2059      0.00000

 k-point   105 :       0.5000   -0.1667    0.1667
  band No.  band energies     occupation 
      1       4.8317      2.00000
      2       4.9707      2.00000
      3       5.9501      2.00000
      4       7.5781      2.00000
      5       9.1793      1.99993
      6      14.3613      0.00000
      7      14.9809      0.00000
      8      20.6839      0.00000
      9      22.5026      0.00000
     10      29.4852      0.00000
     11      33.5286      0.00000
     12      38.2060      0.00000

 k-point   106 :      -0.1667   -0.3333    0.3333
  band No.  band energies     occupation 
      1       4.8317      2.00000
      2       4.9707      2.00000
      3       5.9501      2.00000
      4       7.5781      2.00000
      5       9.1794      1.99993
      6      14.3614      0.00000
      7      14.9809      0.00000
      8      20.6838      0.00000
      9      22.5026      0.00000
     10      29.4852      0.00000
     11      33.5286      0.00000
     12      38.2057      0.00000

 k-point   107 :      -0.3333    0.5000    0.1667
  band No.  band energies     occupation 
      1       4.2193      2.00000
      2       4.5684      2.00000
      3       6.8337      2.00000
      4       8.1848      2.00000
      5       9.6808      0.00000
      6      14.9682      0.00000
      7      15.9699      0.00000
      8      18.8534      0.00000
      9      20.4631      0.00000
     10      31.5689      0.00000
     11      32.2788      0.00000
     12      34.8401      0.00000

 k-point   108 :       0.1667   -0.3333    0.5000
  band No.  band energies     occupation 
      1       4.2193      2.00000
      2       4.5684      2.00000
      3       6.8337      2.00000
      4       8.1848      2.00000
      5       9.6808      0.00000
      6      14.9682      0.00000
      7      15.9699      0.00000
      8      18.8534      0.00000
      9      20.4631      0.00000
     10      31.5689      0.00000
     11      32.2788      0.00000
     12      34.8401      0.00000

 k-point   109 :       0.5000    0.1667   -0.3333
  band No.  band energies     occupation 
      1       4.2193      2.00000
      2       4.5684      2.00000
      3       6.8337      2.00000
      4       8.1848      2.00000
      5       9.6808      0.00000
      6      14.9682      0.00000
      7      15.9699      0.00000
      8      18.8534      0.00000
      9      20.4631      0.00000
     10      31.5689      0.00000
     11      32.2788      0.00000
     12      34.8401      0.00000

 k-point   110 :       0.5000    0.3333   -0.1667
  band No.  band energies     occupation 
      1       4.2193      2.00000
      2       4.5684      2.00000
      3       6.8337      2.00000
      4       8.1848      2.00000
      5       9.6808      0.00000
      6      14.9682      0.00000
      7      15.9699      0.00000
      8      18.8534      0.00000
      9      20.4631      0.00000
     10      31.5689      0.00000
     11      32.2788      0.00000
     12      34.8401      0.00000

 k-point   111 :      -0.3333    0.1667    0.5000
  band No.  band energies     occupation 
      1       4.2193      2.00000
      2       4.5684      2.00000
      3       6.8337      2.00000
      4       8.1848      2.00000
      5       9.6808      0.00000
      6      14.9682      0.00000
      7      15.9699      0.00000
      8      18.8534      0.00000
      9      20.4631      0.00000
     10      31.5689      0.00000
     11      32.2788      0.00000
     12      34.8401      0.00000

 k-point   112 :       0.1667    0.5000   -0.3333
  band No.  band energies     occupation 
      1       4.2193      2.00000
      2       4.5684      2.00000
      3       6.8337      2.00000
      4       8.1848      2.00000
      5       9.6808      0.00000
      6      14.9682      0.00000
      7      15.9699      0.00000
      8      18.8534      0.00000
      9      20.4631      0.00000
     10      31.5689      0.00000
     11      32.2788      0.00000
     12      34.8401      0.00000


--------------------------------------------------------------------------------------------------------


 soft charge-density along one line, spin component            1
         0         1         2         3         4         5         6         7         8         9
 total charge-density along one line
 
 pseudopotential strength for first ion, spin component:            1
 -3.025   0.000  -0.015   0.000   0.008  -3.224   0.000  -0.014
  0.000  -3.025   0.000  -0.017   0.000   0.000  -3.224   0.000
 -0.015   0.000  -3.040   0.000  -0.005  -0.014   0.000  -3.238
  0.000  -0.017   0.000  -3.037  -0.000   0.000  -0.016   0.000
  0.008   0.000  -0.005  -0.000  -3.046   0.008   0.000  -0.005
 -3.224   0.000  -0.014   0.000   0.008  -3.404   0.000  -0.014
  0.000  -3.224   0.000  -0.016   0.000   0.000  -3.404   0.000
 -0.014   0.000  -3.238   0.000  -0.005  -0.014   0.000  -3.418
  0.000  -0.016   0.000  -3.235  -0.000   0.000  -0.016   0.000
  0.008   0.000  -0.005  -0.000  -3.244   0.008   0.000  -0.005
 -0.000  -0.000  -0.000  -0.000  -0.000  -0.000  -0.000  -0.000
 -0.000  -0.000  -0.000  -0.000  -0.000  -0.000  -0.000  -0.000
 -0.000  -0.000  -0.000   0.000   0.000  -0.000  -0.000  -0.000
  0.000  -0.000  -0.000  -0.000  -0.000   0.000  -0.000  -0.000
 -0.000   0.000   0.000  -0.000  -0.000  -0.000   0.000   0.000
 -0.000  -0.000  -0.000   0.000   0.000  -0.000  -0.000  -0.000
  0.000  -0.000  -0.000  -0.000  -0.000   0.000  -0.000  -0.000
 -0.000   0.000   0.000  -0.000  -0.000  -0.000   0.000   0.000
 total augmentation occupancy for first ion, spin component:            1
  4.089   0.000  -0.322   0.000   0.186  -2.392  -0.000   0.081  -0.000  -0.047   0.000  -0.000   0.000  -0.000  -0.000  -0.000
  0.000   4.089  -0.000  -0.371  -0.000  -0.000  -2.392   0.000   0.093   0.000   0.000  -0.000  -0.000  -0.000   0.000  -0.000
 -0.322  -0.000   3.761  -0.000  -0.114   0.081   0.000  -2.310   0.000   0.029   0.000  -0.000  -0.000  -0.000   0.000   0.000
  0.000  -0.371  -0.000   3.827   0.000  -0.000   0.093   0.000  -2.326  -0.000   0.000  -0.000  -0.000   0.000  -0.000   0.000
  0.186  -0.000  -0.114   0.000   3.630  -0.047   0.000   0.029  -0.000  -2.276   0.000  -0.000  -0.000   0.000  -0.000   0.000
 -2.392  -0.000   0.081  -0.000  -0.047   2.472   0.000   0.093   0.000  -0.054  -0.000   0.000  -0.000   0.000   0.000   0.000
 -0.000  -2.392   0.000   0.093   0.000   0.000   2.472  -0.000   0.108  -0.000  -0.000   0.000   0.000   0.000   0.000   0.000
  0.081   0.000  -2.310   0.000   0.029   0.093  -0.000   2.567   0.000   0.033  -0.000   0.000  -0.000  -0.000  -0.000   0.000
 -0.000   0.093   0.000  -2.326  -0.000   0.000   0.108   0.000   2.548   0.000  -0.000   0.000  -0.000  -0.000  -0.000   0.000
 -0.047   0.000   0.029  -0.000  -2.276  -0.054  -0.000   0.033   0.000   2.605  -0.000   0.000   0.000  -0.000   0.000  -0.000
  0.000   0.000   0.000   0.000   0.000  -0.000  -0.000  -0.000  -0.000  -0.000   2.332  -0.516  -0.000   0.000  -0.000   0.000
 -0.000  -0.000  -0.000  -0.000  -0.000   0.000   0.000   0.000   0.000   0.000  -0.516   0.129   0.000   0.000   0.000  -0.000
  0.000  -0.000  -0.000  -0.000  -0.000  -0.000   0.000  -0.000  -0.000   0.000  -0.000   0.000   0.250  -0.000  -0.000  -0.015
 -0.000  -0.000  -0.000   0.000   0.000   0.000   0.000  -0.000  -0.000  -0.000   0.000   0.000  -0.000   0.250  -0.000  -0.000
 -0.000   0.000   0.000  -0.000  -0.000   0.000   0.000  -0.000  -0.000   0.000  -0.000   0.000  -0.000  -0.000   0.250   0.000
 -0.000  -0.000   0.000   0.000   0.000   0.000   0.000   0.000   0.000  -0.000   0.000  -0.000  -0.015  -0.000   0.000   0.001
  0.000   0.000  -0.000   0.000  -0.000  -0.000  -0.000   0.000   0.000   0.000  -0.000   0.000   0.000  -0.015   0.000   0.000
 -0.000  -0.000  -0.000   0.000   0.000   0.000  -0.000   0.000   0.000  -0.000  -0.000  -0.000   0.000   0.000  -0.015  -0.000


------------------------ aborting loop because EDIFF is reached ----------------------------------------





 total charge

# of ion       s       p       d       tot
------------------------------------------
    1        0.589   0.481   7.966   9.035
 
    CHARGE:  cpu time    0.0072: real time    0.0073
    FORLOC:  cpu time    0.0001: real time    0.0001
    FORNL :  cpu time    0.0207: real time    0.0207
    FORCOR:  cpu time    0.0090: real time    0.0090
    FORHAR:  cpu time    0.0008: real time    0.0008
    MIXING:  cpu time    0.0003: real time    0.0003
    OFIELD:  cpu time    0.0000: real time    0.0000

 VOLUME and BASIS-vectors are now :
 -----------------------------------------------------------------------------
  energy-cutoff  :      420.00
  volume of cell :       16.87
      direct lattice vectors                 reciprocal lattice vectors
     2.493298000  0.000005000  1.439521000     0.401075908 -0.141802442 -0.000000729
     0.831105000  2.350701000  1.439521000    -0.000000427  0.425405621 -0.000000739
     0.000007000  0.000005000  2.879019000    -0.200539343 -0.141802722  0.347341269

  length of vectors
     2.879019907  2.879019177  2.879019000     0.425405473  0.425405621  0.425405685


 FORCES acting on ions
    electron-ion (+dipol)            ewald-force                    non-local-force                 convergence-correction
 -----------------------------------------------------------------------------------------------
   -.306E-05 -.139E-04 -.183E-04   0.284E-15 0.328E-15 0.126E-14   -.505E-05 -.153E-04 -.472E-04   0.838E-06 0.162E-04 0.385E-04
 -----------------------------------------------------------------------------------------------
   -.306E-05 -.139E-04 -.183E-04   0.284E-15 0.328E-15 0.126E-14   -.505E-05 -.153E-04 -.472E-04   0.838E-06 0.162E-04 0.385E-04
 
 
 POSITION                                       TOTAL-FORCE (eV/Angst)
 -----------------------------------------------------------------------------------
      0.00000      0.00000      0.00000        -0.000007     -0.000013     -0.000027
 -----------------------------------------------------------------------------------
    total drift:                               -0.000007     -0.000013     -0.000027


--------------------------------------------------------------------------------------------------------



  FREE ENERGIE OF THE ION-ELECTRON SYSTEM (eV)
  ---------------------------------------------------
  free  energy   TOTEN  =        -5.49994601 eV

  energy  without entropy=       -5.49663644  energy(sigma->0) =       -5.49829123
 


--------------------------------------------------------------------------------------------------------


    POTLOK:  cpu time    0.0068: real time    0.0068


--------------------------------------------------------------------------------------------------------


     LOOP+:  cpu time    4.8136: real time    4.8561
    4ORBIT:  cpu time    0.0000: real time    0.0000



 total charge

# of ion       s       p       d       tot
------------------------------------------
    1        0.589   0.481   7.966   9.035
 

 total amount of memory used by VASP MPI-rank0    32121. kBytes
=======================================================================

   base      :      30000. kBytes
   nonl-proj :       1356. kBytes
   fftplans  :         80. kBytes
   grid      :        111. kBytes
   one-center:         15. kBytes
   wavefun   :        559. kBytes
 
  
  
 General timing and accounting informations for this job:
 ========================================================
  
                  Total CPU time used (sec):        5.985
                            User time (sec):        5.794
                          System time (sec):        0.191
                         Elapsed time (sec):       11.298
  
                   Maximum memory used (kb):       52344.
                   Average memory used (kb):          N/A
  
                          Minor page faults:         7224
                          Major page faults:          442
                 Voluntary context switches:         5663
