<?xml version="1.0" encoding="ISO-8859-1"?>
<modeling>
 <generator>
  <i name="program" type="string">vasp </i>
  <i name="version" type="string">6.2.0  </i>
  <i name="subversion" type="string">18Jan21 (build Feb  1 2022 01:28:57) complex                          parallel </i>
  <i name="platform" type="string">LinuxPGI </i>
  <i name="date" type="string">2022 05 18 </i>
  <i name="time" type="string">19:38:03 </i>
 </generator>
 <incar>
  <i type="string" name="PREC">Normal</i>
  <i type="string" name="ALGO">38</i>
  <i type="int" name="ISPIN">     1</i>
  <i type="int" name="NELM">    60</i>
  <i type="int" name="NELMIN">     4</i>
  <i type="int" name="IBRION">     2</i>
  <i name="EDIFF">      0.00010000</i>
  <i name="EDIFFG">     -0.03000000</i>
  <i type="int" name="NSW">     0</i>
  <i type="int" name="ISIF">     0</i>
  <i type="int" name="ISYM">     0</i>
  <i name="SYMPREC">      0.00001000</i>
  <i name="ENCUT">    420.00000000</i>
  <i type="logical" name="LREAL"> F  </i>
  <i type="int" name="ISMEAR">     0</i>
  <i name="SIGMA">      0.05000000</i>
  <i type="logical" name="LWAVE"> F  </i>
  <i type="logical" name="LVTOT"> F  </i>
  <i type="int" name="LORBIT">    11</i>
  <i type="logical" name="LASPH"> F  </i>
  <i type="string" name="GGA">RP</i>
 </incar>
 <primitive_cell>
  <structure name="primitive_cell" >
   <crystal>
    <varray name="basis" >
     <v>       2.49329800       0.00000500       1.43952100 </v>
     <v>       0.83110500       2.35070100       1.43952100 </v>
     <v>       0.00000700       0.00000500       2.87901900 </v>
    </varray>
    <i name="volume">     16.87387728 </i>
    <varray name="rec_basis" >
     <v>       0.40107591      -0.14180244      -0.00000073 </v>
     <v>      -0.00000043       0.42540562      -0.00000074 </v>
     <v>      -0.20053934      -0.14180272       0.34734127 </v>
    </varray>
   </crystal>
   <varray name="positions" >
    <v>       0.00000000       0.00000000       0.00000000 </v>
   </varray>
  </structure>
  <varray name="primitive_index" >
   <v type="int" >        1 </v>
  </varray>
 </primitive_cell>
 <kpoints>
  <generation param="Gamma">
   <v type="int" name="divisions">       6        6        6 </v>
   <v name="usershift">      0.00000000       0.00000000       0.00000000 </v>
   <v name="genvec1">      0.16666667      -0.00000000      -0.00000000 </v>
   <v name="genvec2">     -0.00000000       0.16666667       0.00000000 </v>
   <v name="genvec3">      0.00000000       0.00000000       0.16666667 </v>
   <v name="shift">      0.00000000       0.00000000       0.00000000 </v>
  </generation>
  <varray name="kpointlist" >
   <v>       0.00000000       0.00000000       0.00000000 </v>
   <v>       0.16666667       0.00000000       0.00000000 </v>
   <v>       0.00000000       0.16666667       0.00000000 </v>
   <v>       0.00000000       0.00000000       0.16666667 </v>
   <v>       0.16666667       0.16666667       0.16666667 </v>
   <v>       0.33333333       0.00000000       0.00000000 </v>
   <v>       0.00000000       0.33333333       0.00000000 </v>
   <v>       0.00000000       0.00000000       0.33333333 </v>
   <v>       0.33333333       0.33333333       0.33333333 </v>
   <v>       0.50000000       0.00000000       0.00000000 </v>
   <v>       0.00000000       0.50000000       0.00000000 </v>
   <v>       0.00000000       0.00000000       0.50000000 </v>
   <v>       0.50000000       0.50000000       0.50000000 </v>
   <v>       0.16666667       0.16666667       0.00000000 </v>
   <v>       0.00000000       0.16666667       0.16666667 </v>
   <v>       0.16666667       0.00000000       0.16666667 </v>
   <v>       0.33333333       0.16666667       0.00000000 </v>
   <v>       0.00000000       0.33333333       0.16666667 </v>
   <v>       0.16666667       0.00000000       0.33333333 </v>
   <v>       0.16666667       0.16666667      -0.16666667 </v>
   <v>       0.33333333       0.16666667       0.33333333 </v>
   <v>       0.16666667       0.33333333       0.00000000 </v>
   <v>       0.16666667      -0.16666667      -0.16666667 </v>
   <v>       0.33333333       0.33333333       0.16666667 </v>
   <v>       0.00000000       0.16666667       0.33333333 </v>
   <v>      -0.16666667       0.16666667      -0.16666667 </v>
   <v>       0.16666667       0.33333333       0.33333333 </v>
   <v>       0.33333333       0.00000000       0.16666667 </v>
   <v>       0.50000000       0.16666667       0.00000000 </v>
   <v>       0.00000000       0.50000000       0.16666667 </v>
   <v>       0.16666667       0.00000000       0.50000000 </v>
   <v>       0.16666667       0.16666667      -0.33333333 </v>
   <v>       0.50000000       0.33333333       0.50000000 </v>
   <v>       0.16666667       0.50000000       0.00000000 </v>
   <v>       0.33333333      -0.16666667      -0.16666667 </v>
   <v>       0.50000000       0.50000000       0.33333333 </v>
   <v>       0.00000000       0.16666667       0.50000000 </v>
   <v>      -0.16666667       0.33333333      -0.16666667 </v>
   <v>       0.33333333       0.50000000       0.50000000 </v>
   <v>       0.50000000       0.00000000       0.16666667 </v>
   <v>      -0.33333333       0.16666667       0.00000000 </v>
   <v>       0.00000000      -0.33333333       0.16666667 </v>
   <v>       0.16666667       0.00000000      -0.33333333 </v>
   <v>       0.16666667       0.16666667       0.50000000 </v>
   <v>      -0.33333333       0.50000000      -0.33333333 </v>
   <v>       0.16666667      -0.33333333       0.00000000 </v>
   <v>       0.50000000      -0.16666667      -0.16666667 </v>
   <v>      -0.33333333      -0.33333333       0.50000000 </v>
   <v>       0.00000000       0.16666667      -0.33333333 </v>
   <v>      -0.16666667       0.50000000      -0.16666667 </v>
   <v>       0.50000000      -0.33333333      -0.33333333 </v>
   <v>      -0.33333333       0.00000000       0.16666667 </v>
   <v>      -0.16666667       0.16666667       0.00000000 </v>
   <v>       0.00000000      -0.16666667       0.16666667 </v>
   <v>       0.16666667       0.00000000      -0.16666667 </v>
   <v>       0.16666667       0.16666667       0.33333333 </v>
   <v>      -0.16666667      -0.33333333      -0.16666667 </v>
   <v>      -0.33333333      -0.16666667      -0.16666667 </v>
   <v>       0.33333333       0.33333333       0.00000000 </v>
   <v>       0.00000000       0.33333333       0.33333333 </v>
   <v>       0.33333333       0.00000000       0.33333333 </v>
   <v>       0.50000000       0.33333333       0.00000000 </v>
   <v>       0.00000000       0.50000000       0.33333333 </v>
   <v>       0.33333333       0.00000000       0.50000000 </v>
   <v>       0.33333333       0.33333333      -0.16666667 </v>
   <v>       0.50000000       0.16666667       0.50000000 </v>
   <v>       0.33333333       0.50000000       0.00000000 </v>
   <v>       0.16666667      -0.33333333      -0.33333333 </v>
   <v>       0.50000000       0.50000000       0.16666667 </v>
   <v>       0.00000000       0.33333333       0.50000000 </v>
   <v>      -0.33333333       0.16666667      -0.33333333 </v>
   <v>       0.16666667       0.50000000       0.50000000 </v>
   <v>       0.50000000       0.00000000       0.33333333 </v>
   <v>      -0.33333333       0.33333333       0.00000000 </v>
   <v>       0.00000000      -0.33333333       0.33333333 </v>
   <v>       0.33333333       0.00000000      -0.33333333 </v>
   <v>       0.33333333       0.33333333      -0.33333333 </v>
   <v>      -0.33333333       0.33333333      -0.33333333 </v>
   <v>       0.33333333      -0.33333333      -0.33333333 </v>
   <v>       0.50000000       0.50000000       0.00000000 </v>
   <v>       0.00000000       0.50000000       0.50000000 </v>
   <v>       0.50000000       0.00000000       0.50000000 </v>
   <v>       0.50000000       0.33333333       0.16666667 </v>
   <v>       0.16666667       0.50000000       0.33333333 </v>
   <v>       0.33333333       0.16666667       0.50000000 </v>
   <v>       0.33333333       0.16666667      -0.16666667 </v>
   <v>       0.50000000       0.16666667       0.33333333 </v>
   <v>       0.16666667      -0.33333333      -0.16666667 </v>
   <v>       0.16666667       0.33333333      -0.16666667 </v>
   <v>       0.16666667      -0.16666667      -0.33333333 </v>
   <v>       0.33333333       0.50000000       0.16666667 </v>
   <v>      -0.16666667       0.16666667      -0.33333333 </v>
   <v>      -0.33333333       0.16666667      -0.16666667 </v>
   <v>       0.16666667       0.33333333       0.50000000 </v>
   <v>      -0.33333333       0.33333333       0.16666667 </v>
   <v>       0.16666667      -0.33333333       0.33333333 </v>
   <v>       0.33333333       0.16666667      -0.33333333 </v>
   <v>      -0.33333333       0.33333333       0.50000000 </v>
   <v>       0.16666667       0.50000000      -0.16666667 </v>
   <v>       0.33333333      -0.16666667      -0.33333333 </v>
   <v>       0.50000000      -0.33333333       0.33333333 </v>
   <v>      -0.16666667       0.16666667       0.50000000 </v>
   <v>      -0.33333333       0.33333333      -0.16666667 </v>
   <v>       0.33333333       0.50000000      -0.33333333 </v>
   <v>       0.50000000      -0.16666667       0.16666667 </v>
   <v>      -0.16666667      -0.33333333       0.33333333 </v>
   <v>      -0.33333333       0.50000000       0.16666667 </v>
   <v>       0.16666667      -0.33333333       0.50000000 </v>
   <v>       0.50000000       0.16666667      -0.33333333 </v>
   <v>       0.50000000       0.33333333      -0.16666667 </v>
   <v>      -0.33333333       0.16666667       0.50000000 </v>
   <v>       0.16666667       0.50000000      -0.33333333 </v>
  </varray>
  <varray name="weights" >
   <v>       0.00462963 </v>
   <v>       0.00925926 </v>
   <v>       0.00925926 </v>
   <v>       0.00925926 </v>
   <v>       0.00925926 </v>
   <v>       0.00925926 </v>
   <v>       0.00925926 </v>
   <v>       0.00925926 </v>
   <v>       0.00925926 </v>
   <v>       0.00462963 </v>
   <v>       0.00462963 </v>
   <v>       0.00462963 </v>
   <v>       0.00462963 </v>
   <v>       0.00925926 </v>
   <v>       0.00925926 </v>
   <v>       0.00925926 </v>
   <v>       0.00925926 </v>
   <v>       0.00925926 </v>
   <v>       0.00925926 </v>
   <v>       0.00925926 </v>
   <v>       0.00925926 </v>
   <v>       0.00925926 </v>
   <v>       0.00925926 </v>
   <v>       0.00925926 </v>
   <v>       0.00925926 </v>
   <v>       0.00925926 </v>
   <v>       0.00925926 </v>
   <v>       0.00925926 </v>
   <v>       0.00925926 </v>
   <v>       0.00925926 </v>
   <v>       0.00925926 </v>
   <v>       0.00925926 </v>
   <v>       0.00925926 </v>
   <v>       0.00925926 </v>
   <v>       0.00925926 </v>
   <v>       0.00925926 </v>
   <v>       0.00925926 </v>
   <v>       0.00925926 </v>
   <v>       0.00925926 </v>
   <v>       0.00925926 </v>
   <v>       0.00925926 </v>
   <v>       0.00925926 </v>
   <v>       0.00925926 </v>
   <v>       0.00925926 </v>
   <v>       0.00925926 </v>
   <v>       0.00925926 </v>
   <v>       0.00925926 </v>
   <v>       0.00925926 </v>
   <v>       0.00925926 </v>
   <v>       0.00925926 </v>
   <v>       0.00925926 </v>
   <v>       0.00925926 </v>
   <v>       0.00925926 </v>
   <v>       0.00925926 </v>
   <v>       0.00925926 </v>
   <v>       0.00925926 </v>
   <v>       0.00925926 </v>
   <v>       0.00925926 </v>
   <v>       0.00925926 </v>
   <v>       0.00925926 </v>
   <v>       0.00925926 </v>
   <v>       0.00925926 </v>
   <v>       0.00925926 </v>
   <v>       0.00925926 </v>
   <v>       0.00925926 </v>
   <v>       0.00925926 </v>
   <v>       0.00925926 </v>
   <v>       0.00925926 </v>
   <v>       0.00925926 </v>
   <v>       0.00925926 </v>
   <v>       0.00925926 </v>
   <v>       0.00925926 </v>
   <v>       0.00925926 </v>
   <v>       0.00925926 </v>
   <v>       0.00925926 </v>
   <v>       0.00925926 </v>
   <v>       0.00925926 </v>
   <v>       0.00925926 </v>
   <v>       0.00925926 </v>
   <v>       0.00462963 </v>
   <v>       0.00462963 </v>
   <v>       0.00462963 </v>
   <v>       0.00925926 </v>
   <v>       0.00925926 </v>
   <v>       0.00925926 </v>
   <v>       0.00925926 </v>
   <v>       0.00925926 </v>
   <v>       0.00925926 </v>
   <v>       0.00925926 </v>
   <v>       0.00925926 </v>
   <v>       0.00925926 </v>
   <v>       0.00925926 </v>
   <v>       0.00925926 </v>
   <v>       0.00925926 </v>
   <v>       0.00925926 </v>
   <v>       0.00925926 </v>
   <v>       0.00925926 </v>
   <v>       0.00925926 </v>
   <v>       0.00925926 </v>
   <v>       0.00925926 </v>
   <v>       0.00925926 </v>
   <v>       0.00925926 </v>
   <v>       0.00925926 </v>
   <v>       0.00925926 </v>
   <v>       0.00925926 </v>
   <v>       0.00925926 </v>
   <v>       0.00925926 </v>
   <v>       0.00925926 </v>
   <v>       0.00925926 </v>
   <v>       0.00925926 </v>
   <v>       0.00925926 </v>
   <v>       0.00925926 </v>
  </varray>
 </kpoints>
 <parameters>
  <separator name="general" >
   <i type="string" name="SYSTEM">unknown system</i>
   <i type="logical" name="LCOMPAT"> F  </i>
  </separator>
  <separator name="electronic" >
   <i type="string" name="PREC">normal</i>
   <i name="ENMAX">    420.00000000</i>
   <i name="ENAUG">    358.96600000</i>
   <i name="EDIFF">      0.00010000</i>
   <i type="int" name="IALGO">    38</i>
   <i type="int" name="IWAVPR">    10</i>
   <i type="int" name="NBANDS">    12</i>
   <i type="int" name="NBANDSLOW">    -1</i>
   <i type="int" name="NBANDSHIGH">    -1</i>
   <i name="NELECT">     10.00000000</i>
   <i type="int" name="TURBO">     0</i>
   <i type="int" name="IRESTART">     0</i>
   <i type="int" name="NREBOOT">     0</i>
   <i type="int" name="NMIN">     0</i>
   <i name="EREF">      0.00000000</i>
   <separator name="electronic smearing" >
    <i type="int" name="ISMEAR">     0</i>
    <i name="SIGMA">      0.05000000</i>
    <i name="KSPACING">      0.50000000</i>
    <i type="logical" name="KGAMMA"> T  </i>
    <i type="logical" name="KBLOWUP"> T  </i>
   </separator>
   <separator name="electronic projectors" >
    <i type="logical" name="LREAL"> F  </i>
    <v name="ROPT">      0.00000000</v>
    <i type="int" name="LMAXPAW">  -100</i>
    <i type="int" name="LMAXMIX">     2</i>
    <i type="logical" name="NLSPLINE"> F  </i>
   </separator>
   <separator name="electronic startup" >
    <i type="int" name="ISTART">     0</i>
    <i type="int" name="ICHARG">     2</i>
    <i type="int" name="INIWAV">     1</i>
   </separator>
   <separator name="electronic spin" >
    <i type="int" name="ISPIN">     1</i>
    <i type="logical" name="LNONCOLLINEAR"> F  </i>
    <v name="MAGMOM">      1.00000000</v>
    <i name="NUPDOWN">     -1.00000000</i>
    <i type="logical" name="LSORBIT"> F  </i>
    <v name="SAXIS">      0.00000000      0.00000000      1.00000000</v>
    <i type="logical" name="LSPIRAL"> F  </i>
    <v name="QSPIRAL">      0.00000000      0.00000000      0.00000000</v>
    <i type="logical" name="LZEROZ"> F  </i>
   </separator>
   <separator name="electronic exchange-correlation" >
    <i type="logical" name="LASPH"> F  </i>
    <i type="logical" name="LMETAGGA"> F  </i>
   </separator>
   <separator name="electronic convergence" >
    <i type="int" name="NELM">    60</i>
    <i type="int" name="NELMDL">    -5</i>
    <i type="int" name="NELMIN">     4</i>
    <i name="ENINI">    420.00000000</i>
    <separator name="electronic convergence detail" >
     <i type="logical" name="LDIAG"> T  </i>
     <i type="logical" name="LSUBROT"> F  </i>
     <i name="WEIMIN">      0.00000000</i>
     <i name="EBREAK">      0.00000208</i>
     <i name="DEPER">      0.30000000</i>
     <i type="int" name="NRMM">     4</i>
     <i name="TIME">      0.40000000</i>
    </separator>
   </separator>
   <separator name="electronic mixer" >
    <i name="AMIX">      0.40000000</i>
    <i name="BMIX">      1.00000000</i>
    <i name="AMIN">      0.10000000</i>
    <i name="AMIX_MAG">      1.60000000</i>
    <i name="BMIX_MAG">      1.00000000</i>
    <separator name="electronic mixer details" >
     <i type="int" name="IMIX">     4</i>
     <i type="logical" name="MIXFIRST"> F  </i>
     <i type="int" name="MAXMIX">   -45</i>
     <i name="WC">    100.00000000</i>
     <i type="int" name="INIMIX">     1</i>
     <i type="int" name="MIXPRE">     1</i>
     <i type="int" name="MREMOVE">     5</i>
    </separator>
   </separator>
   <separator name="electronic dipolcorrection" >
    <i type="logical" name="LDIPOL"> F  </i>
    <i type="logical" name="LMONO"> F  </i>
    <i type="int" name="IDIPOL">     0</i>
    <i name="EPSILON">      1.00000000</i>
    <v name="DIPOL">   -100.00000000   -100.00000000   -100.00000000</v>
    <i name="EFIELD">      0.00000000</i>
   </separator>
  </separator>
  <separator name="grids" >
   <i type="int" name="NGX">    14</i>
   <i type="int" name="NGY">    14</i>
   <i type="int" name="NGZ">    14</i>
   <i type="int" name="NGXF">    28</i>
   <i type="int" name="NGYF">    28</i>
   <i type="int" name="NGZF">    28</i>
   <i type="logical" name="ADDGRID"> F  </i>
  </separator>
  <separator name="ionic" >
   <i type="int" name="NSW">     0</i>
   <i type="int" name="IBRION">    -1</i>
   <i type="int" name="MDALGO">     0</i>
   <i type="int" name="ISIF">     0</i>
   <i name="PSTRESS">      0.00000000</i>
   <i name="EDIFFG">     -0.03000000</i>
   <i type="int" name="NFREE">     1</i>
   <i name="POTIM">      0.50000000</i>
   <i name="SMASS">     -3.00000000</i>
   <i name="SCALEE">      1.00000000</i>
  </separator>
  <separator name="ionic md" >
   <i name="TEBEG">      0.00010000</i>
   <i name="TEEND">      0.00010000</i>
   <i type="int" name="NBLOCK">     1</i>
   <i type="int" name="KBLOCK">     1</i>
   <i type="int" name="NPACO">   256</i>
   <i name="APACO">     16.00000000</i>
  </separator>
  <separator name="symmetry" >
   <i type="int" name="ISYM">     0</i>
   <i name="SYMPREC">      0.00001000</i>
  </separator>
  <separator name="dos" >
   <i type="int" name="LORBIT">    11</i>
   <v name="RWIGS">     -1.00000000</v>
   <i type="int" name="NEDOS">   301</i>
   <i name="EMIN">     10.00000000</i>
   <i name="EMAX">    -10.00000000</i>
   <i name="EFERMI">      0.00000000</i>
  </separator>
  <separator name="writing" >
   <i type="int" name="NWRITE">     2</i>
   <i type="logical" name="LWAVE"> F  </i>
   <i type="logical" name="LDOWNSAMPLE"> F  </i>
   <i type="logical" name="LCHARG"> T  </i>
   <i type="logical" name="LPARD"> F  </i>
   <i type="logical" name="LVTOT"> F  </i>
   <i type="logical" name="LVHAR"> F  </i>
   <i type="logical" name="LELF"> F  </i>
   <i type="logical" name="LOPTICS"> F  </i>
   <v name="STM">      0.00000000      0.00000000      0.00000000      0.00000000      0.00000000      0.00000000      0.00000000</v>
  </separator>
  <separator name="performance" >
   <i type="int" name="NPAR">     4</i>
   <i type="int" name="NSIM">     4</i>
   <i type="int" name="NBLK">    -1</i>
   <i type="logical" name="LPLANE"> T  </i>
   <i type="logical" name="LSCALAPACK"> T  </i>
   <i type="logical" name="LSCAAWARE"> F  </i>
   <i type="logical" name="LSCALU"> F  </i>
   <i type="logical" name="LASYNC"> F  </i>
   <i type="logical" name="LORBITALREAL"> F  </i>
  </separator>
  <separator name="miscellaneous" >
   <i type="int" name="IDIOT">     3</i>
   <i type="int" name="PHON_NSTRUCT">    -1</i>
   <i type="logical" name="LMUSIC"> F  </i>
   <v name="POMASS">    195.08000000</v>
   <v name="DARWINR">      0.00000000</v>
   <v name="DARWINV">      1.00000000</v>
   <i type="logical" name="LCORR"> T  </i>
  </separator>
  <i type="logical" name="GGA_COMPAT"> T  </i>
  <i type="logical" name="LBERRY"> F  </i>
  <i type="int" name="ICORELEVEL">     0</i>
  <i type="logical" name="LDAU"> F  </i>
  <i type="int" name="I_CONSTRAINED_M">     0</i>
  <separator name="electronic exchange-correlation" >
   <i type="string" name="GGA">RP</i>
   <i type="int" name="VOSKOWN">     0</i>
   <i type="logical" name="LHFCALC"> F  </i>
   <i type="string" name="PRECFOCK"></i>
   <i type="logical" name="LSYMGRAD"> F  </i>
   <i type="logical" name="LHFONE"> F  </i>
   <i type="logical" name="LRHFCALC"> F  </i>
   <i type="logical" name="LTHOMAS"> F  </i>
   <i type="logical" name="LMODELHF"> F  </i>
   <i type="logical" name="LFOCKACE"> F  </i>
   <i name="ENCUT4O">     -1.00000000</i>
   <i type="int" name="EXXOEP">     0</i>
   <i type="int" name="FOURORBIT">     0</i>
   <i name="AEXX">      0.00000000</i>
   <i name="HFALPHA">      0.00000000</i>
   <i name="MCALPHA">      0.00000000</i>
   <i name="ALDAX">      1.00000000</i>
   <i name="AGGAX">      1.00000000</i>
   <i name="ALDAC">      1.00000000</i>
   <i name="AGGAC">      1.00000000</i>
   <i type="int" name="NKREDX">     1</i>
   <i type="int" name="NKREDY">     1</i>
   <i type="int" name="NKREDZ">     1</i>
   <i type="logical" name="SHIFTRED"> F  </i>
   <i type="logical" name="ODDONLY"> F  </i>
   <i type="logical" name="EVENONLY"> F  </i>
   <i type="int" name="LMAXFOCK">     0</i>
   <i type="int" name="NMAXFOCKAE">     0</i>
   <i type="logical" name="LFOCKAEDFT"> F  </i>
   <i name="HFSCREEN">      0.00000000</i>
   <i name="HFSCREENC">      0.00000000</i>
   <i type="int" name="NBANDSGWLOW">     0</i>
  </separator>
  <separator name="vdW DFT" >
   <i type="logical" name="LUSE_VDW"> F  </i>
   <i name="Zab_VDW">     -0.84910000</i>
   <i name="PARAM1">      0.12340000</i>
   <i name="PARAM2">      1.00000000</i>
   <i name="PARAM3">      0.00000000</i>
  </separator>
  <separator name="model GW" >
   <i type="int" name="MODEL_GW">     0</i>
   <i name="MODEL_EPS0">     10.12432637</i>
   <i name="MODEL_ALPHA">      1.00000000</i>
  </separator>
  <separator name="linear response parameters" >
   <i type="logical" name="LEPSILON"> F  </i>
   <i type="logical" name="LRPA"> F  </i>
   <i type="logical" name="LNABLA"> F  </i>
   <i type="logical" name="LVEL"> F  </i>
   <i type="int" name="KINTER">     0</i>
   <i name="CSHIFT">      0.10000000</i>
   <i name="OMEGAMAX">     -1.00000000</i>
   <i name="DEG_THRESHOLD">      0.00200000</i>
   <i name="RTIME">     -0.10000000</i>
   <i name="WPLASMAI">      0.00000000</i>
   <v name="DFIELD">      0.00000000      0.00000000      0.00000000</v>
   <v name="WPLASMA">      0.00000000      0.00000000      0.00000000      0.00000000      0.00000000      0.00000000      0.00000000      0.00000000      0.00000000</v>
  </separator>
  <separator name="orbital magnetization" >
   <i type="logical" name="NUCIND"> F  </i>
   <v name="MAGPOS">      0.00000000      0.00000000      0.00000000</v>
   <i type="logical" name="LNICSALL"> T  </i>
   <i type="logical" name="ORBITALMAG"> F  </i>
   <i type="logical" name="LMAGBLOCH"> F  </i>
   <i type="logical" name="LCHIMAG"> F  </i>
   <i type="logical" name="LGAUGE"> T  </i>
   <i type="int" name="MAGATOM">     0</i>
   <v name="MAGDIPOL">      0.00000000      0.00000000      0.00000000</v>
   <v name="AVECCONST">      0.00000000      0.00000000      0.00000000</v>
  </separator>
  <separator name="response functions" >
   <i type="logical" name="LFINITE_TEMPERATURE"> F  </i>
   <i type="logical" name="LADDER"> F  </i>
   <i type="logical" name="LRPAFORCE"> F  </i>
   <i type="logical" name="LFXC"> F  </i>
   <i type="logical" name="LHARTREE"> T  </i>
   <i type="int" name="IBSE">     0</i>
   <v type="int" name="KPOINT">    -1     0     0     0</v>
   <i type="logical" name="LTCTC"> F  </i>
   <i type="logical" name="LTCTE"> F  </i>
   <i type="logical" name="LTETE"> F  </i>
   <i type="logical" name="LTRIPLET"> F  </i>
   <i type="logical" name="LFXCEPS"> F  </i>
   <i type="logical" name="LFXHEG"> F  </i>
   <i type="int" name="NATURALO">     2</i>
   <i type="logical" name="LHOLEGF"> F  </i>
   <i type="logical" name="L2ORDER"> F  </i>
   <i type="logical" name="LDMP1"> F  </i>
   <i type="logical" name="LMP2LT"> F  </i>
   <i type="logical" name="LSMP2LT"> F  </i>
   <i type="logical" name="LGWLF"> F  </i>
   <i name="ENCUTGW">     -2.00000000</i>
   <i name="ENCUTGWSOFT">     -2.00000000</i>
   <i name="ENCUTLF">     -1.00000000</i>
   <i type="logical" name="LESF_SPLINES"> F  </i>
   <i type="int" name="LMAXMP2">    -1</i>
   <i name="SCISSOR">      0.00000000</i>
   <i type="int" name="NOMEGA">     0</i>
   <i type="int" name="NOMEGAR">     0</i>
   <i type="int" name="NBANDSGW">    -1</i>
   <i type="int" name="NBANDSO">    -1</i>
   <i type="int" name="NBANDSV">    -1</i>
   <i type="int" name="NELM">    60</i>
   <i type="int" name="NELMHF">     1</i>
   <i type="int" name="DIM">     3</i>
   <i type="int" name="IESPILON">     4</i>
   <i type="int" name="ANTIRES">     0</i>
   <i name="OMEGAMAX">    -30.00000000</i>
   <i name="OMEGAMIN">    -30.00000000</i>
   <i name="OMEGATL">   -200.00000000</i>
   <i type="int" name="OMEGAGRID">     0</i>
   <i name="CSHIFT">     -0.10000000</i>
   <i type="logical" name="LSELFENERGY"> F  </i>
   <i type="logical" name="LSPECTRAL"> F  </i>
   <i type="logical" name="LSPECTRALGW"> F  </i>
   <i type="logical" name="LSINGLES"> F  </i>
   <i type="logical" name="LFERMIGW"> F  </i>
   <i type="logical" name="ODDONLYGW"> F  </i>
   <i type="logical" name="EVENONLYGW"> F  </i>
   <i type="int" name="NKREDLFX">     1</i>
   <i type="int" name="NKREDLFY">     1</i>
   <i type="int" name="NKREDLFZ">     1</i>
   <i type="int" name="MAXMEM">  2800</i>
   <i type="int" name="TELESCOPE">     0</i>
   <i type="int" name="NTAUPAR">    -1</i>
   <i type="int" name="NOMEGAPAR">    -1</i>
   <i name="DAMP_NEWTON">      0.80000001</i>
   <i name="LAMBDA">      1.00000000</i>
  </separator>
  <separator name="External order field" >
   <i name="OFIELD_KAPPA">      0.00000000</i>
   <v name="OFIELD_K">      0.00000000      0.00000000      0.00000000</v>
   <i name="OFIELD_Q6_NEAR">      0.00000000</i>
   <i name="OFIELD_Q6_FAR">      0.00000000</i>
   <i name="OFIELD_A">      0.00000000</i>
  </separator>
 </parameters>
 <atominfo>
  <atoms>       1 </atoms>
  <types>       1 </types>
  <array name="atoms" >
   <dimension dim="1">ion</dimension>
   <field type="string">element</field>
   <field type="int">atomtype</field>
   <set>
    <rc><c>Pt</c><c>   1</c></rc>
   </set>
  </array>
  <array name="atomtypes" >
   <dimension dim="1">type</dimension>
   <field type="int">atomspertype</field>
   <field type="string">element</field>
   <field>mass</field>
   <field>valence</field>
   <field type="string">pseudopotential</field>
   <set>
    <rc><c>   1</c><c>Pt</c><c>    195.08000000</c><c>     10.00000000</c><c>  PAW_PBE Pt 04Feb2005                  </c></rc>
   </set>
  </array>
 </atominfo>
 <structure name="initialpos" >
  <crystal>
   <varray name="basis" >
    <v>       2.49329800       0.00000500       1.43952100 </v>
    <v>       0.83110500       2.35070100       1.43952100 </v>
    <v>       0.00000700       0.00000500       2.87901900 </v>
   </varray>
   <i name="volume">     16.87387728 </i>
   <varray name="rec_basis" >
    <v>       0.40107591      -0.14180244      -0.00000073 </v>
    <v>      -0.00000043       0.42540562      -0.00000074 </v>
    <v>      -0.20053934      -0.14180272       0.34734127 </v>
   </varray>
  </crystal>
  <varray name="positions" >
   <v>       0.00000000       0.00000000       0.00000000 </v>
  </varray>
 </structure>
 <calculation>
  <scstep>
   <time name="dav">    0.45    0.45</time>
   <time name="total">    0.46    0.46</time>
   <energy>
    <i name="alphaZ">     56.33457292 </i>
    <i name="ewald">   -810.76325997 </i>
    <i name="hartreedc">    -81.72064944 </i>
    <i name="XCdc">      3.05735506 </i>
    <i name="pawpsdc">    696.70595042 </i>
    <i name="pawaedc">   -667.45827301 </i>
    <i name="eentropy">     -0.00163671 </i>
    <i name="bandstr">    107.37533902 </i>
    <i name="atom">    728.31920932 </i>
    <i name="e_fr_energy">     31.84860761 </i>
    <i name="e_wo_entrp">     31.85024433 </i>
    <i name="e_0_energy">     31.84942597 </i>
   </energy>
  </scstep>
  <scstep>
   <time name="dav">    0.47    0.47</time>
   <time name="total">    0.47    0.48</time>
   <energy>
    <i name="e_fr_energy">     -5.35220289 </i>
    <i name="e_wo_entrp">     -5.35026685 </i>
    <i name="e_0_energy">     -5.35123487 </i>
   </energy>
  </scstep>
  <scstep>
   <time name="dav">    0.49    0.49</time>
   <time name="total">    0.49    0.49</time>
   <energy>
    <i name="e_fr_energy">     -5.85360965 </i>
    <i name="e_wo_entrp">     -5.85154013 </i>
    <i name="e_0_energy">     -5.85257489 </i>
   </energy>
  </scstep>
  <scstep>
   <time name="dav">    0.49    0.49</time>
   <time name="total">    0.49    0.49</time>
   <energy>
    <i name="e_fr_energy">     -5.85575798 </i>
    <i name="e_wo_entrp">     -5.85369077 </i>
    <i name="e_0_energy">     -5.85472438 </i>
   </energy>
  </scstep>
  <scstep>
   <time name="dav">    0.49    0.49</time>
   <time name="total">    0.50    0.50</time>
   <energy>
    <i name="e_fr_energy">     -5.85577713 </i>
    <i name="e_wo_entrp">     -5.85370995 </i>
    <i name="e_0_energy">     -5.85474354 </i>
   </energy>
  </scstep>
  <scstep>
   <time name="dav">    0.44    0.45</time>
   <time name="total">    0.46    0.46</time>
   <energy>
    <i name="e_fr_energy">     -5.52934730 </i>
    <i name="e_wo_entrp">     -5.52689194 </i>
    <i name="e_0_energy">     -5.52811962 </i>
   </energy>
  </scstep>
  <scstep>
   <time name="dav">    0.47    0.47</time>
   <time name="total">    0.48    0.49</time>
   <energy>
    <i name="e_fr_energy">     -5.50275518 </i>
    <i name="e_wo_entrp">     -5.49945541 </i>
    <i name="e_0_energy">     -5.50110530 </i>
   </energy>
  </scstep>
  <scstep>
   <time name="dav">    0.44    0.45</time>
   <time name="total">    0.46    0.46</time>
   <energy>
    <i name="e_fr_energy">     -5.50972829 </i>
    <i name="e_wo_entrp">     -5.50734829 </i>
    <i name="e_0_energy">     -5.50853829 </i>
   </energy>
  </scstep>
  <scstep>
   <time name="dav">    0.47    0.47</time>
   <time name="total">    0.49    0.49</time>
   <energy>
    <i name="e_fr_energy">     -5.49997927 </i>
    <i name="e_wo_entrp">     -5.49671999 </i>
    <i name="e_0_energy">     -5.49834963 </i>
   </energy>
  </scstep>
  <scstep>
   <time name="dav">    0.45    0.45</time>
   <time name="total">    0.46    0.46</time>
   <energy>
    <i name="alphaZ">     56.33457292 </i>
    <i name="ewald">   -810.76325997 </i>
    <i name="hartreedc">    -71.54924236 </i>
    <i name="XCdc">      2.71989100 </i>
    <i name="pawpsdc">    855.60418641 </i>
    <i name="pawaedc">   -828.86561471 </i>
    <i name="eentropy">     -0.00330957 </i>
    <i name="bandstr">     62.70362095 </i>
    <i name="atom">    728.31920932 </i>
    <i name="e_fr_energy">     -5.49994601 </i>
    <i name="e_wo_entrp">     -5.49663644 </i>
    <i name="e_0_energy">     -5.49829123 </i>
   </energy>
  </scstep>
  <structure>
   <crystal>
    <varray name="basis" >
     <v>       2.49329800       0.00000500       1.43952100 </v>
     <v>       0.83110500       2.35070100       1.43952100 </v>
     <v>       0.00000700       0.00000500       2.87901900 </v>
    </varray>
    <i name="volume">     16.87387728 </i>
    <varray name="rec_basis" >
     <v>       0.40107591      -0.14180244      -0.00000073 </v>
     <v>      -0.00000043       0.42540562      -0.00000074 </v>
     <v>      -0.20053934      -0.14180272       0.34734127 </v>
    </varray>
   </crystal>
   <varray name="positions" >
    <v>       0.00000000       0.00000000       0.00000000 </v>
   </varray>
  </structure>
  <varray name="forces" >
   <v>      -0.00000727      -0.00001300      -0.00002703 </v>
  </varray>
  <energy>
   <i name="e_fr_energy">     -5.49994601 </i>
   <i name="e_wo_entrp">     -5.49663644 </i>
   <i name="e_0_energy">     -5.49829123 </i>
  </energy>
  <time name="totalsc">    4.81    4.86</time>
  <eigenvalues>
   <array>
    <dimension dim="1">band</dimension>
    <dimension dim="2">kpoint</dimension>
    <dimension dim="3">spin</dimension>
    <field>eigene</field>
    <field>occ</field>
    <set>
     <set comment="spin 1">
      <set comment="kpoint 1">
       <r>    0.3428    1.0000 </r>
       <r>    6.1559    1.0000 </r>
       <r>    6.1560    1.0000 </r>
       <r>    6.1560    1.0000 </r>
       <r>    7.9377    1.0000 </r>
       <r>    7.9377    1.0000 </r>
       <r>   24.1899    0.0000 </r>
       <r>   28.5465    0.0000 </r>
       <r>   28.5467    0.0000 </r>
       <r>   28.5467    0.0000 </r>
       <r>   33.4886    0.0000 </r>
       <r>   39.0964    0.0000 </r>
      </set>
      <set comment="kpoint 2">
       <r>    1.2889    1.0000 </r>
       <r>    5.8667    1.0000 </r>
       <r>    6.4324    1.0000 </r>
       <r>    6.4325    1.0000 </r>
       <r>    7.8619    1.0000 </r>
       <r>    7.8619    1.0000 </r>
       <r>   24.6743    0.0000 </r>
       <r>   25.4197    0.0000 </r>
       <r>   29.8248    0.0000 </r>
       <r>   29.8250    0.0000 </r>
       <r>   32.8520    0.0000 </r>
       <r>   35.2404    0.0000 </r>
      </set>
      <set comment="kpoint 3">
       <r>    1.2889    1.0000 </r>
       <r>    5.8667    1.0000 </r>
       <r>    6.4324    1.0000 </r>
       <r>    6.4325    1.0000 </r>
       <r>    7.8619    1.0000 </r>
       <r>    7.8619    1.0000 </r>
       <r>   24.6743    0.0000 </r>
       <r>   25.4197    0.0000 </r>
       <r>   29.8248    0.0000 </r>
       <r>   29.8250    0.0000 </r>
       <r>   32.8520    0.0000 </r>
       <r>   35.2403    0.0000 </r>
      </set>
      <set comment="kpoint 4">
       <r>    1.2889    1.0000 </r>
       <r>    5.8667    1.0000 </r>
       <r>    6.4324    1.0000 </r>
       <r>    6.4325    1.0000 </r>
       <r>    7.8619    1.0000 </r>
       <r>    7.8619    1.0000 </r>
       <r>   24.6743    0.0000 </r>
       <r>   25.4197    0.0000 </r>
       <r>   29.8248    0.0000 </r>
       <r>   29.8250    0.0000 </r>
       <r>   32.8520    0.0000 </r>
       <r>   35.2404    0.0000 </r>
      </set>
      <set comment="kpoint 5">
       <r>    1.2889    1.0000 </r>
       <r>    5.8667    1.0000 </r>
       <r>    6.4324    1.0000 </r>
       <r>    6.4324    1.0000 </r>
       <r>    7.8620    1.0000 </r>
       <r>    7.8620    1.0000 </r>
       <r>   24.6741    0.0000 </r>
       <r>   25.4197    0.0000 </r>
       <r>   29.8250    0.0000 </r>
       <r>   29.8250    0.0000 </r>
       <r>   32.8520    0.0000 </r>
       <r>   35.2403    0.0000 </r>
      </set>
      <set comment="kpoint 6">
       <r>    2.8902    1.0000 </r>
       <r>    6.3295    1.0000 </r>
       <r>    6.3296    1.0000 </r>
       <r>    6.6385    1.0000 </r>
       <r>    8.6136    1.0000 </r>
       <r>    8.6137    1.0000 </r>
       <r>   18.8429    0.0000 </r>
       <r>   24.7120    0.0000 </r>
       <r>   29.4873    0.0000 </r>
       <r>   29.4874    0.0000 </r>
       <r>   33.3802    0.0000 </r>
       <r>   33.8633    0.0000 </r>
      </set>
      <set comment="kpoint 7">
       <r>    2.8902    1.0000 </r>
       <r>    6.3295    1.0000 </r>
       <r>    6.3296    1.0000 </r>
       <r>    6.6385    1.0000 </r>
       <r>    8.6136    1.0000 </r>
       <r>    8.6137    1.0000 </r>
       <r>   18.8429    0.0000 </r>
       <r>   24.7120    0.0000 </r>
       <r>   29.4873    0.0000 </r>
       <r>   29.4874    0.0000 </r>
       <r>   33.3801    0.0000 </r>
       <r>   33.8633    0.0000 </r>
      </set>
      <set comment="kpoint 8">
       <r>    2.8902    1.0000 </r>
       <r>    6.3295    1.0000 </r>
       <r>    6.3296    1.0000 </r>
       <r>    6.6385    1.0000 </r>
       <r>    8.6136    1.0000 </r>
       <r>    8.6137    1.0000 </r>
       <r>   18.8429    0.0000 </r>
       <r>   24.7120    0.0000 </r>
       <r>   29.4873    0.0000 </r>
       <r>   29.4874    0.0000 </r>
       <r>   33.3801    0.0000 </r>
       <r>   33.8633    0.0000 </r>
      </set>
      <set comment="kpoint 9">
       <r>    2.8901    1.0000 </r>
       <r>    6.3295    1.0000 </r>
       <r>    6.3295    1.0000 </r>
       <r>    6.6385    1.0000 </r>
       <r>    8.6137    1.0000 </r>
       <r>    8.6137    1.0000 </r>
       <r>   18.8427    0.0000 </r>
       <r>   24.7121    0.0000 </r>
       <r>   29.4874    0.0000 </r>
       <r>   29.4875    0.0000 </r>
       <r>   33.3801    0.0000 </r>
       <r>   33.8633    0.0000 </r>
      </set>
      <set comment="kpoint 10">
       <r>    3.1052    1.0000 </r>
       <r>    6.1136    1.0000 </r>
       <r>    6.1137    1.0000 </r>
       <r>    9.3123    0.5887 </r>
       <r>    9.3124    0.5882 </r>
       <r>    9.3237    0.4607 </r>
       <r>   14.3657    0.0000 </r>
       <r>   23.7288    0.0000 </r>
       <r>   27.5153    0.0000 </r>
       <r>   27.5155    0.0000 </r>
       <r>   35.8265    0.0000 </r>
       <r>   35.8265    0.0000 </r>
      </set>
      <set comment="kpoint 11">
       <r>    3.1052    1.0000 </r>
       <r>    6.1136    1.0000 </r>
       <r>    6.1137    1.0000 </r>
       <r>    9.3123    0.5887 </r>
       <r>    9.3124    0.5882 </r>
       <r>    9.3237    0.4607 </r>
       <r>   14.3657    0.0000 </r>
       <r>   23.7288    0.0000 </r>
       <r>   27.5153    0.0000 </r>
       <r>   27.5155    0.0000 </r>
       <r>   35.8265    0.0000 </r>
       <r>   35.8265    0.0000 </r>
      </set>
      <set comment="kpoint 12">
       <r>    3.1052    1.0000 </r>
       <r>    6.1136    1.0000 </r>
       <r>    6.1137    1.0000 </r>
       <r>    9.3123    0.5887 </r>
       <r>    9.3124    0.5882 </r>
       <r>    9.3237    0.4606 </r>
       <r>   14.3657    0.0000 </r>
       <r>   23.7288    0.0000 </r>
       <r>   27.5153    0.0000 </r>
       <r>   27.5155    0.0000 </r>
       <r>   35.8265    0.0000 </r>
       <r>   35.8265    0.0000 </r>
      </set>
      <set comment="kpoint 13">
       <r>    3.1051    1.0000 </r>
       <r>    6.1136    1.0000 </r>
       <r>    6.1136    1.0000 </r>
       <r>    9.3123    0.5887 </r>
       <r>    9.3123    0.5887 </r>
       <r>    9.3236    0.4618 </r>
       <r>   14.3656    0.0000 </r>
       <r>   23.7289    0.0000 </r>
       <r>   27.5155    0.0000 </r>
       <r>   27.5155    0.0000 </r>
       <r>   35.8266    0.0000 </r>
       <r>   35.8266    0.0000 </r>
      </set>
      <set comment="kpoint 14">
       <r>    1.6158    1.0000 </r>
       <r>    5.4584    1.0000 </r>
       <r>    6.7937    1.0000 </r>
       <r>    6.7938    1.0000 </r>
       <r>    7.2070    1.0000 </r>
       <r>    8.2474    1.0000 </r>
       <r>   25.9345    0.0000 </r>
       <r>   26.6958    0.0000 </r>
       <r>   27.6343    0.0000 </r>
       <r>   27.6345    0.0000 </r>
       <r>   33.1134    0.0000 </r>
       <r>   34.9561    0.0000 </r>
      </set>
      <set comment="kpoint 15">
       <r>    1.6158    1.0000 </r>
       <r>    5.4584    1.0000 </r>
       <r>    6.7937    1.0000 </r>
       <r>    6.7938    1.0000 </r>
       <r>    7.2070    1.0000 </r>
       <r>    8.2474    1.0000 </r>
       <r>   25.9345    0.0000 </r>
       <r>   26.6958    0.0000 </r>
       <r>   27.6343    0.0000 </r>
       <r>   27.6345    0.0000 </r>
       <r>   33.1134    0.0000 </r>
       <r>   34.9561    0.0000 </r>
      </set>
      <set comment="kpoint 16">
       <r>    1.6158    1.0000 </r>
       <r>    5.4584    1.0000 </r>
       <r>    6.7937    1.0000 </r>
       <r>    6.7938    1.0000 </r>
       <r>    7.2070    1.0000 </r>
       <r>    8.2474    1.0000 </r>
       <r>   25.9345    0.0000 </r>
       <r>   26.6958    0.0000 </r>
       <r>   27.6343    0.0000 </r>
       <r>   27.6345    0.0000 </r>
       <r>   33.1134    0.0000 </r>
       <r>   34.9561    0.0000 </r>
      </set>
      <set comment="kpoint 17">
       <r>    3.2179    1.0000 </r>
       <r>    5.1751    1.0000 </r>
       <r>    6.2665    1.0000 </r>
       <r>    7.0675    1.0000 </r>
       <r>    8.4538    1.0000 </r>
       <r>    8.8556    1.0000 </r>
       <r>   21.3242    0.0000 </r>
       <r>   25.9518    0.0000 </r>
       <r>   26.1920    0.0000 </r>
       <r>   28.1788    0.0000 </r>
       <r>   32.1122    0.0000 </r>
       <r>   34.7258    0.0000 </r>
      </set>
      <set comment="kpoint 18">
       <r>    3.2179    1.0000 </r>
       <r>    5.1751    1.0000 </r>
       <r>    6.2665    1.0000 </r>
       <r>    7.0675    1.0000 </r>
       <r>    8.4538    1.0000 </r>
       <r>    8.8556    1.0000 </r>
       <r>   21.3242    0.0000 </r>
       <r>   25.9518    0.0000 </r>
       <r>   26.1920    0.0000 </r>
       <r>   28.1788    0.0000 </r>
       <r>   32.1122    0.0000 </r>
       <r>   34.7258    0.0000 </r>
      </set>
      <set comment="kpoint 19">
       <r>    3.2179    1.0000 </r>
       <r>    5.1751    1.0000 </r>
       <r>    6.2665    1.0000 </r>
       <r>    7.0675    1.0000 </r>
       <r>    8.4538    1.0000 </r>
       <r>    8.8556    1.0000 </r>
       <r>   21.3242    0.0000 </r>
       <r>   25.9518    0.0000 </r>
       <r>   26.1920    0.0000 </r>
       <r>   28.1788    0.0000 </r>
       <r>   32.1121    0.0000 </r>
       <r>   34.7258    0.0000 </r>
      </set>
      <set comment="kpoint 20">
       <r>    3.2179    1.0000 </r>
       <r>    5.1752    1.0000 </r>
       <r>    6.2665    1.0000 </r>
       <r>    7.0676    1.0000 </r>
       <r>    8.4538    1.0000 </r>
       <r>    8.8556    1.0000 </r>
       <r>   21.3242    0.0000 </r>
       <r>   25.9518    0.0000 </r>
       <r>   26.1921    0.0000 </r>
       <r>   28.1789    0.0000 </r>
       <r>   32.1119    0.0000 </r>
       <r>   34.7259    0.0000 </r>
      </set>
      <set comment="kpoint 21">
       <r>    3.2179    1.0000 </r>
       <r>    5.1752    1.0000 </r>
       <r>    6.2665    1.0000 </r>
       <r>    7.0675    1.0000 </r>
       <r>    8.4538    1.0000 </r>
       <r>    8.8556    1.0000 </r>
       <r>   21.3240    0.0000 </r>
       <r>   25.9518    0.0000 </r>
       <r>   26.1921    0.0000 </r>
       <r>   28.1789    0.0000 </r>
       <r>   32.1121    0.0000 </r>
       <r>   34.7259    0.0000 </r>
      </set>
      <set comment="kpoint 22">
       <r>    3.2179    1.0000 </r>
       <r>    5.1751    1.0000 </r>
       <r>    6.2665    1.0000 </r>
       <r>    7.0675    1.0000 </r>
       <r>    8.4538    1.0000 </r>
       <r>    8.8556    1.0000 </r>
       <r>   21.3242    0.0000 </r>
       <r>   25.9518    0.0000 </r>
       <r>   26.1920    0.0000 </r>
       <r>   28.1788    0.0000 </r>
       <r>   32.1121    0.0000 </r>
       <r>   34.7258    0.0000 </r>
      </set>
      <set comment="kpoint 23">
       <r>    3.2179    1.0000 </r>
       <r>    5.1752    1.0000 </r>
       <r>    6.2665    1.0000 </r>
       <r>    7.0676    1.0000 </r>
       <r>    8.4538    1.0000 </r>
       <r>    8.8556    1.0000 </r>
       <r>   21.3242    0.0000 </r>
       <r>   25.9518    0.0000 </r>
       <r>   26.1921    0.0000 </r>
       <r>   28.1789    0.0000 </r>
       <r>   32.1119    0.0000 </r>
       <r>   34.7260    0.0000 </r>
      </set>
      <set comment="kpoint 24">
       <r>    3.2179    1.0000 </r>
       <r>    5.1752    1.0000 </r>
       <r>    6.2665    1.0000 </r>
       <r>    7.0675    1.0000 </r>
       <r>    8.4538    1.0000 </r>
       <r>    8.8556    1.0000 </r>
       <r>   21.3240    0.0000 </r>
       <r>   25.9518    0.0000 </r>
       <r>   26.1921    0.0000 </r>
       <r>   28.1789    0.0000 </r>
       <r>   32.1121    0.0000 </r>
       <r>   34.7259    0.0000 </r>
      </set>
      <set comment="kpoint 25">
       <r>    3.2179    1.0000 </r>
       <r>    5.1751    1.0000 </r>
       <r>    6.2665    1.0000 </r>
       <r>    7.0675    1.0000 </r>
       <r>    8.4538    1.0000 </r>
       <r>    8.8556    1.0000 </r>
       <r>   21.3242    0.0000 </r>
       <r>   25.9518    0.0000 </r>
       <r>   26.1920    0.0000 </r>
       <r>   28.1788    0.0000 </r>
       <r>   32.1122    0.0000 </r>
       <r>   34.7258    0.0000 </r>
      </set>
      <set comment="kpoint 26">
       <r>    3.2179    1.0000 </r>
       <r>    5.1752    1.0000 </r>
       <r>    6.2665    1.0000 </r>
       <r>    7.0676    1.0000 </r>
       <r>    8.4538    1.0000 </r>
       <r>    8.8556    1.0000 </r>
       <r>   21.3242    0.0000 </r>
       <r>   25.9518    0.0000 </r>
       <r>   26.1921    0.0000 </r>
       <r>   28.1789    0.0000 </r>
       <r>   32.1119    0.0000 </r>
       <r>   34.7260    0.0000 </r>
      </set>
      <set comment="kpoint 27">
       <r>    3.2179    1.0000 </r>
       <r>    5.1752    1.0000 </r>
       <r>    6.2665    1.0000 </r>
       <r>    7.0675    1.0000 </r>
       <r>    8.4538    1.0000 </r>
       <r>    8.8556    1.0000 </r>
       <r>   21.3240    0.0000 </r>
       <r>   25.9518    0.0000 </r>
       <r>   26.1922    0.0000 </r>
       <r>   28.1789    0.0000 </r>
       <r>   32.1121    0.0000 </r>
       <r>   34.7259    0.0000 </r>
      </set>
      <set comment="kpoint 28">
       <r>    3.2179    1.0000 </r>
       <r>    5.1751    1.0000 </r>
       <r>    6.2665    1.0000 </r>
       <r>    7.0675    1.0000 </r>
       <r>    8.4538    1.0000 </r>
       <r>    8.8556    1.0000 </r>
       <r>   21.3242    0.0000 </r>
       <r>   25.9518    0.0000 </r>
       <r>   26.1920    0.0000 </r>
       <r>   28.1788    0.0000 </r>
       <r>   32.1122    0.0000 </r>
       <r>   34.7258    0.0000 </r>
      </set>
      <set comment="kpoint 29">
       <r>    3.7711    1.0000 </r>
       <r>    5.6461    1.0000 </r>
       <r>    6.7005    1.0000 </r>
       <r>    6.7625    1.0000 </r>
       <r>    9.3620    0.1186 </r>
       <r>   11.6225    0.0000 </r>
       <r>   15.1487    0.0000 </r>
       <r>   24.0631    0.0000 </r>
       <r>   25.8414    0.0000 </r>
       <r>   26.3002    0.0000 </r>
       <r>   35.4247    0.0000 </r>
       <r>   36.3324    0.0000 </r>
      </set>
      <set comment="kpoint 30">
       <r>    3.7711    1.0000 </r>
       <r>    5.6461    1.0000 </r>
       <r>    6.7005    1.0000 </r>
       <r>    6.7625    1.0000 </r>
       <r>    9.3620    0.1186 </r>
       <r>   11.6225    0.0000 </r>
       <r>   15.1487    0.0000 </r>
       <r>   24.0631    0.0000 </r>
       <r>   25.8414    0.0000 </r>
       <r>   26.3002    0.0000 </r>
       <r>   35.4247    0.0000 </r>
       <r>   36.3324    0.0000 </r>
      </set>
      <set comment="kpoint 31">
       <r>    3.7711    1.0000 </r>
       <r>    5.6461    1.0000 </r>
       <r>    6.7005    1.0000 </r>
       <r>    6.7625    1.0000 </r>
       <r>    9.3620    0.1186 </r>
       <r>   11.6225    0.0000 </r>
       <r>   15.1487    0.0000 </r>
       <r>   24.0631    0.0000 </r>
       <r>   25.8414    0.0000 </r>
       <r>   26.3002    0.0000 </r>
       <r>   35.4247    0.0000 </r>
       <r>   36.3324    0.0000 </r>
      </set>
      <set comment="kpoint 32">
       <r>    3.7711    1.0000 </r>
       <r>    5.6461    1.0000 </r>
       <r>    6.7005    1.0000 </r>
       <r>    6.7626    1.0000 </r>
       <r>    9.3621    0.1185 </r>
       <r>   11.6225    0.0000 </r>
       <r>   15.1487    0.0000 </r>
       <r>   24.0630    0.0000 </r>
       <r>   25.8415    0.0000 </r>
       <r>   26.3003    0.0000 </r>
       <r>   35.4248    0.0000 </r>
       <r>   36.3325    0.0000 </r>
      </set>
      <set comment="kpoint 33">
       <r>    3.7711    1.0000 </r>
       <r>    5.6461    1.0000 </r>
       <r>    6.7005    1.0000 </r>
       <r>    6.7625    1.0000 </r>
       <r>    9.3620    0.1187 </r>
       <r>   11.6224    0.0000 </r>
       <r>   15.1486    0.0000 </r>
       <r>   24.0632    0.0000 </r>
       <r>   25.8415    0.0000 </r>
       <r>   26.3003    0.0000 </r>
       <r>   35.4248    0.0000 </r>
       <r>   36.3325    0.0000 </r>
      </set>
      <set comment="kpoint 34">
       <r>    3.7711    1.0000 </r>
       <r>    5.6461    1.0000 </r>
       <r>    6.7005    1.0000 </r>
       <r>    6.7625    1.0000 </r>
       <r>    9.3620    0.1186 </r>
       <r>   11.6225    0.0000 </r>
       <r>   15.1487    0.0000 </r>
       <r>   24.0631    0.0000 </r>
       <r>   25.8414    0.0000 </r>
       <r>   26.3002    0.0000 </r>
       <r>   35.4247    0.0000 </r>
       <r>   36.3324    0.0000 </r>
      </set>
      <set comment="kpoint 35">
       <r>    3.7711    1.0000 </r>
       <r>    5.6461    1.0000 </r>
       <r>    6.7005    1.0000 </r>
       <r>    6.7626    1.0000 </r>
       <r>    9.3621    0.1185 </r>
       <r>   11.6225    0.0000 </r>
       <r>   15.1487    0.0000 </r>
       <r>   24.0630    0.0000 </r>
       <r>   25.8415    0.0000 </r>
       <r>   26.3003    0.0000 </r>
       <r>   35.4248    0.0000 </r>
       <r>   36.3325    0.0000 </r>
      </set>
      <set comment="kpoint 36">
       <r>    3.7711    1.0000 </r>
       <r>    5.6461    1.0000 </r>
       <r>    6.7005    1.0000 </r>
       <r>    6.7625    1.0000 </r>
       <r>    9.3620    0.1188 </r>
       <r>   11.6224    0.0000 </r>
       <r>   15.1486    0.0000 </r>
       <r>   24.0632    0.0000 </r>
       <r>   25.8415    0.0000 </r>
       <r>   26.3003    0.0000 </r>
       <r>   35.4248    0.0000 </r>
       <r>   36.3325    0.0000 </r>
      </set>
      <set comment="kpoint 37">
       <r>    3.7711    1.0000 </r>
       <r>    5.6461    1.0000 </r>
       <r>    6.7005    1.0000 </r>
       <r>    6.7625    1.0000 </r>
       <r>    9.3620    0.1186 </r>
       <r>   11.6225    0.0000 </r>
       <r>   15.1487    0.0000 </r>
       <r>   24.0631    0.0000 </r>
       <r>   25.8414    0.0000 </r>
       <r>   26.3002    0.0000 </r>
       <r>   35.4247    0.0000 </r>
       <r>   36.3324    0.0000 </r>
      </set>
      <set comment="kpoint 38">
       <r>    3.7711    1.0000 </r>
       <r>    5.6461    1.0000 </r>
       <r>    6.7005    1.0000 </r>
       <r>    6.7626    1.0000 </r>
       <r>    9.3621    0.1185 </r>
       <r>   11.6225    0.0000 </r>
       <r>   15.1487    0.0000 </r>
       <r>   24.0630    0.0000 </r>
       <r>   25.8415    0.0000 </r>
       <r>   26.3003    0.0000 </r>
       <r>   35.4248    0.0000 </r>
       <r>   36.3325    0.0000 </r>
      </set>
      <set comment="kpoint 39">
       <r>    3.7711    1.0000 </r>
       <r>    5.6461    1.0000 </r>
       <r>    6.7005    1.0000 </r>
       <r>    6.7625    1.0000 </r>
       <r>    9.3620    0.1187 </r>
       <r>   11.6224    0.0000 </r>
       <r>   15.1486    0.0000 </r>
       <r>   24.0632    0.0000 </r>
       <r>   25.8415    0.0000 </r>
       <r>   26.3003    0.0000 </r>
       <r>   35.4248    0.0000 </r>
       <r>   36.3325    0.0000 </r>
      </set>
      <set comment="kpoint 40">
       <r>    3.7711    1.0000 </r>
       <r>    5.6461    1.0000 </r>
       <r>    6.7005    1.0000 </r>
       <r>    6.7625    1.0000 </r>
       <r>    9.3620    0.1186 </r>
       <r>   11.6225    0.0000 </r>
       <r>   15.1487    0.0000 </r>
       <r>   24.0631    0.0000 </r>
       <r>   25.8414    0.0000 </r>
       <r>   26.3002    0.0000 </r>
       <r>   35.4247    0.0000 </r>
       <r>   36.3324    0.0000 </r>
      </set>
      <set comment="kpoint 41">
       <r>    3.8404    1.0000 </r>
       <r>    5.8100    1.0000 </r>
       <r>    6.3974    1.0000 </r>
       <r>    6.7392    1.0000 </r>
       <r>    8.4181    1.0000 </r>
       <r>   10.8360    0.0000 </r>
       <r>   17.2700    0.0000 </r>
       <r>   23.3692    0.0000 </r>
       <r>   25.9103    0.0000 </r>
       <r>   28.7309    0.0000 </r>
       <r>   32.7713    0.0000 </r>
       <r>   35.8566    0.0000 </r>
      </set>
      <set comment="kpoint 42">
       <r>    3.8404    1.0000 </r>
       <r>    5.8100    1.0000 </r>
       <r>    6.3974    1.0000 </r>
       <r>    6.7392    1.0000 </r>
       <r>    8.4181    1.0000 </r>
       <r>   10.8360    0.0000 </r>
       <r>   17.2700    0.0000 </r>
       <r>   23.3692    0.0000 </r>
       <r>   25.9103    0.0000 </r>
       <r>   28.7309    0.0000 </r>
       <r>   32.7713    0.0000 </r>
       <r>   35.8566    0.0000 </r>
      </set>
      <set comment="kpoint 43">
       <r>    3.8404    1.0000 </r>
       <r>    5.8100    1.0000 </r>
       <r>    6.3974    1.0000 </r>
       <r>    6.7392    1.0000 </r>
       <r>    8.4181    1.0000 </r>
       <r>   10.8360    0.0000 </r>
       <r>   17.2700    0.0000 </r>
       <r>   23.3692    0.0000 </r>
       <r>   25.9103    0.0000 </r>
       <r>   28.7309    0.0000 </r>
       <r>   32.7713    0.0000 </r>
       <r>   35.8566    0.0000 </r>
      </set>
      <set comment="kpoint 44">
       <r>    3.8404    1.0000 </r>
       <r>    5.8100    1.0000 </r>
       <r>    6.3974    1.0000 </r>
       <r>    6.7392    1.0000 </r>
       <r>    8.4181    1.0000 </r>
       <r>   10.8359    0.0000 </r>
       <r>   17.2700    0.0000 </r>
       <r>   23.3691    0.0000 </r>
       <r>   25.9103    0.0000 </r>
       <r>   28.7310    0.0000 </r>
       <r>   32.7714    0.0000 </r>
       <r>   35.8566    0.0000 </r>
      </set>
      <set comment="kpoint 45">
       <r>    3.8404    1.0000 </r>
       <r>    5.8100    1.0000 </r>
       <r>    6.3974    1.0000 </r>
       <r>    6.7392    1.0000 </r>
       <r>    8.4181    1.0000 </r>
       <r>   10.8359    0.0000 </r>
       <r>   17.2699    0.0000 </r>
       <r>   23.3693    0.0000 </r>
       <r>   25.9104    0.0000 </r>
       <r>   28.7310    0.0000 </r>
       <r>   32.7713    0.0000 </r>
       <r>   35.8568    0.0000 </r>
      </set>
      <set comment="kpoint 46">
       <r>    3.8404    1.0000 </r>
       <r>    5.8100    1.0000 </r>
       <r>    6.3974    1.0000 </r>
       <r>    6.7392    1.0000 </r>
       <r>    8.4181    1.0000 </r>
       <r>   10.8360    0.0000 </r>
       <r>   17.2700    0.0000 </r>
       <r>   23.3692    0.0000 </r>
       <r>   25.9103    0.0000 </r>
       <r>   28.7309    0.0000 </r>
       <r>   32.7713    0.0000 </r>
       <r>   35.8566    0.0000 </r>
      </set>
      <set comment="kpoint 47">
       <r>    3.8404    1.0000 </r>
       <r>    5.8100    1.0000 </r>
       <r>    6.3974    1.0000 </r>
       <r>    6.7392    1.0000 </r>
       <r>    8.4181    1.0000 </r>
       <r>   10.8359    0.0000 </r>
       <r>   17.2700    0.0000 </r>
       <r>   23.3691    0.0000 </r>
       <r>   25.9103    0.0000 </r>
       <r>   28.7310    0.0000 </r>
       <r>   32.7714    0.0000 </r>
       <r>   35.8566    0.0000 </r>
      </set>
      <set comment="kpoint 48">
       <r>    3.8404    1.0000 </r>
       <r>    5.8100    1.0000 </r>
       <r>    6.3974    1.0000 </r>
       <r>    6.7392    1.0000 </r>
       <r>    8.4181    1.0000 </r>
       <r>   10.8359    0.0000 </r>
       <r>   17.2699    0.0000 </r>
       <r>   23.3693    0.0000 </r>
       <r>   25.9104    0.0000 </r>
       <r>   28.7310    0.0000 </r>
       <r>   32.7713    0.0000 </r>
       <r>   35.8568    0.0000 </r>
      </set>
      <set comment="kpoint 49">
       <r>    3.8404    1.0000 </r>
       <r>    5.8100    1.0000 </r>
       <r>    6.3974    1.0000 </r>
       <r>    6.7392    1.0000 </r>
       <r>    8.4181    1.0000 </r>
       <r>   10.8360    0.0000 </r>
       <r>   17.2700    0.0000 </r>
       <r>   23.3692    0.0000 </r>
       <r>   25.9103    0.0000 </r>
       <r>   28.7309    0.0000 </r>
       <r>   32.7713    0.0000 </r>
       <r>   35.8566    0.0000 </r>
      </set>
      <set comment="kpoint 50">
       <r>    3.8404    1.0000 </r>
       <r>    5.8100    1.0000 </r>
       <r>    6.3974    1.0000 </r>
       <r>    6.7392    1.0000 </r>
       <r>    8.4181    1.0000 </r>
       <r>   10.8359    0.0000 </r>
       <r>   17.2700    0.0000 </r>
       <r>   23.3691    0.0000 </r>
       <r>   25.9103    0.0000 </r>
       <r>   28.7310    0.0000 </r>
       <r>   32.7714    0.0000 </r>
       <r>   35.8566    0.0000 </r>
      </set>
      <set comment="kpoint 51">
       <r>    3.8404    1.0000 </r>
       <r>    5.8100    1.0000 </r>
       <r>    6.3974    1.0000 </r>
       <r>    6.7392    1.0000 </r>
       <r>    8.4181    1.0000 </r>
       <r>   10.8359    0.0000 </r>
       <r>   17.2699    0.0000 </r>
       <r>   23.3693    0.0000 </r>
       <r>   25.9104    0.0000 </r>
       <r>   28.7310    0.0000 </r>
       <r>   32.7713    0.0000 </r>
       <r>   35.8568    0.0000 </r>
      </set>
      <set comment="kpoint 52">
       <r>    3.8404    1.0000 </r>
       <r>    5.8100    1.0000 </r>
       <r>    6.3974    1.0000 </r>
       <r>    6.7392    1.0000 </r>
       <r>    8.4181    1.0000 </r>
       <r>   10.8360    0.0000 </r>
       <r>   17.2700    0.0000 </r>
       <r>   23.3692    0.0000 </r>
       <r>   25.9103    0.0000 </r>
       <r>   28.7309    0.0000 </r>
       <r>   32.7713    0.0000 </r>
       <r>   35.8566    0.0000 </r>
      </set>
      <set comment="kpoint 53">
       <r>    2.6648    1.0000 </r>
       <r>    5.4536    1.0000 </r>
       <r>    6.4301    1.0000 </r>
       <r>    6.9997    1.0000 </r>
       <r>    7.2550    1.0000 </r>
       <r>    8.9283    1.0000 </r>
       <r>   22.7400    0.0000 </r>
       <r>   24.7775    0.0000 </r>
       <r>   28.3739    0.0000 </r>
       <r>   28.6866    0.0000 </r>
       <r>   32.8668    0.0000 </r>
       <r>   34.9220    0.0000 </r>
      </set>
      <set comment="kpoint 54">
       <r>    2.6648    1.0000 </r>
       <r>    5.4536    1.0000 </r>
       <r>    6.4301    1.0000 </r>
       <r>    6.9997    1.0000 </r>
       <r>    7.2550    1.0000 </r>
       <r>    8.9283    1.0000 </r>
       <r>   22.7400    0.0000 </r>
       <r>   24.7775    0.0000 </r>
       <r>   28.3739    0.0000 </r>
       <r>   28.6866    0.0000 </r>
       <r>   32.8668    0.0000 </r>
       <r>   34.9220    0.0000 </r>
      </set>
      <set comment="kpoint 55">
       <r>    2.6648    1.0000 </r>
       <r>    5.4536    1.0000 </r>
       <r>    6.4301    1.0000 </r>
       <r>    6.9997    1.0000 </r>
       <r>    7.2550    1.0000 </r>
       <r>    8.9283    1.0000 </r>
       <r>   22.7400    0.0000 </r>
       <r>   24.7775    0.0000 </r>
       <r>   28.3739    0.0000 </r>
       <r>   28.6866    0.0000 </r>
       <r>   32.8668    0.0000 </r>
       <r>   34.9220    0.0000 </r>
      </set>
      <set comment="kpoint 56">
       <r>    2.6648    1.0000 </r>
       <r>    5.4536    1.0000 </r>
       <r>    6.4300    1.0000 </r>
       <r>    6.9997    1.0000 </r>
       <r>    7.2550    1.0000 </r>
       <r>    8.9283    1.0000 </r>
       <r>   22.7399    0.0000 </r>
       <r>   24.7774    0.0000 </r>
       <r>   28.3740    0.0000 </r>
       <r>   28.6866    0.0000 </r>
       <r>   32.8668    0.0000 </r>
       <r>   34.9221    0.0000 </r>
      </set>
      <set comment="kpoint 57">
       <r>    2.6648    1.0000 </r>
       <r>    5.4536    1.0000 </r>
       <r>    6.4300    1.0000 </r>
       <r>    6.9997    1.0000 </r>
       <r>    7.2550    1.0000 </r>
       <r>    8.9283    1.0000 </r>
       <r>   22.7399    0.0000 </r>
       <r>   24.7774    0.0000 </r>
       <r>   28.3740    0.0000 </r>
       <r>   28.6866    0.0000 </r>
       <r>   32.8668    0.0000 </r>
       <r>   34.9222    0.0000 </r>
      </set>
      <set comment="kpoint 58">
       <r>    2.6647    1.0000 </r>
       <r>    5.4536    1.0000 </r>
       <r>    6.4300    1.0000 </r>
       <r>    6.9997    1.0000 </r>
       <r>    7.2550    1.0000 </r>
       <r>    8.9283    1.0000 </r>
       <r>   22.7399    0.0000 </r>
       <r>   24.7774    0.0000 </r>
       <r>   28.3740    0.0000 </r>
       <r>   28.6866    0.0000 </r>
       <r>   32.8668    0.0000 </r>
       <r>   34.9222    0.0000 </r>
      </set>
      <set comment="kpoint 59">
       <r>    3.5724    1.0000 </r>
       <r>    4.2905    1.0000 </r>
       <r>    7.6376    1.0000 </r>
       <r>    8.4588    1.0000 </r>
       <r>    8.4588    1.0000 </r>
       <r>    8.9166    1.0000 </r>
       <r>   23.0222    0.0000 </r>
       <r>   23.0224    0.0000 </r>
       <r>   23.2100    0.0000 </r>
       <r>   27.2064    0.0000 </r>
       <r>   29.3195    0.0000 </r>
       <r>   37.9457    0.0000 </r>
      </set>
      <set comment="kpoint 60">
       <r>    3.5724    1.0000 </r>
       <r>    4.2905    1.0000 </r>
       <r>    7.6376    1.0000 </r>
       <r>    8.4588    1.0000 </r>
       <r>    8.4588    1.0000 </r>
       <r>    8.9166    1.0000 </r>
       <r>   23.0222    0.0000 </r>
       <r>   23.0224    0.0000 </r>
       <r>   23.2100    0.0000 </r>
       <r>   27.2064    0.0000 </r>
       <r>   29.3195    0.0000 </r>
       <r>   37.9458    0.0000 </r>
      </set>
      <set comment="kpoint 61">
       <r>    3.5724    1.0000 </r>
       <r>    4.2905    1.0000 </r>
       <r>    7.6376    1.0000 </r>
       <r>    8.4588    1.0000 </r>
       <r>    8.4588    1.0000 </r>
       <r>    8.9166    1.0000 </r>
       <r>   23.0222    0.0000 </r>
       <r>   23.0224    0.0000 </r>
       <r>   23.2100    0.0000 </r>
       <r>   27.2064    0.0000 </r>
       <r>   29.3195    0.0000 </r>
       <r>   37.9458    0.0000 </r>
      </set>
      <set comment="kpoint 62">
       <r>    3.8656    1.0000 </r>
       <r>    4.3619    1.0000 </r>
       <r>    7.3844    1.0000 </r>
       <r>    8.3493    1.0000 </r>
       <r>    9.4809    0.0000 </r>
       <r>   12.1076    0.0000 </r>
       <r>   17.2695    0.0000 </r>
       <r>   20.7211    0.0000 </r>
       <r>   22.2958    0.0000 </r>
       <r>   28.4696    0.0000 </r>
       <r>   32.0511    0.0000 </r>
       <r>   36.5437    0.0000 </r>
      </set>
      <set comment="kpoint 63">
       <r>    3.8656    1.0000 </r>
       <r>    4.3619    1.0000 </r>
       <r>    7.3844    1.0000 </r>
       <r>    8.3493    1.0000 </r>
       <r>    9.4809    0.0000 </r>
       <r>   12.1076    0.0000 </r>
       <r>   17.2695    0.0000 </r>
       <r>   20.7211    0.0000 </r>
       <r>   22.2958    0.0000 </r>
       <r>   28.4696    0.0000 </r>
       <r>   32.0511    0.0000 </r>
       <r>   36.5437    0.0000 </r>
      </set>
      <set comment="kpoint 64">
       <r>    3.8656    1.0000 </r>
       <r>    4.3619    1.0000 </r>
       <r>    7.3844    1.0000 </r>
       <r>    8.3493    1.0000 </r>
       <r>    9.4809    0.0000 </r>
       <r>   12.1076    0.0000 </r>
       <r>   17.2695    0.0000 </r>
       <r>   20.7211    0.0000 </r>
       <r>   22.2958    0.0000 </r>
       <r>   28.4696    0.0000 </r>
       <r>   32.0511    0.0000 </r>
       <r>   36.5437    0.0000 </r>
      </set>
      <set comment="kpoint 65">
       <r>    3.8656    1.0000 </r>
       <r>    4.3619    1.0000 </r>
       <r>    7.3845    1.0000 </r>
       <r>    8.3494    1.0000 </r>
       <r>    9.4809    0.0000 </r>
       <r>   12.1076    0.0000 </r>
       <r>   17.2695    0.0000 </r>
       <r>   20.7210    0.0000 </r>
       <r>   22.2959    0.0000 </r>
       <r>   28.4698    0.0000 </r>
       <r>   32.0509    0.0000 </r>
       <r>   36.5437    0.0000 </r>
      </set>
      <set comment="kpoint 66">
       <r>    3.8656    1.0000 </r>
       <r>    4.3619    1.0000 </r>
       <r>    7.3845    1.0000 </r>
       <r>    8.3494    1.0000 </r>
       <r>    9.4809    0.0000 </r>
       <r>   12.1075    0.0000 </r>
       <r>   17.2694    0.0000 </r>
       <r>   20.7210    0.0000 </r>
       <r>   22.2959    0.0000 </r>
       <r>   28.4698    0.0000 </r>
       <r>   32.0509    0.0000 </r>
       <r>   36.5438    0.0000 </r>
      </set>
      <set comment="kpoint 67">
       <r>    3.8656    1.0000 </r>
       <r>    4.3619    1.0000 </r>
       <r>    7.3844    1.0000 </r>
       <r>    8.3493    1.0000 </r>
       <r>    9.4809    0.0000 </r>
       <r>   12.1076    0.0000 </r>
       <r>   17.2695    0.0000 </r>
       <r>   20.7211    0.0000 </r>
       <r>   22.2958    0.0000 </r>
       <r>   28.4696    0.0000 </r>
       <r>   32.0511    0.0000 </r>
       <r>   36.5437    0.0000 </r>
      </set>
      <set comment="kpoint 68">
       <r>    3.8656    1.0000 </r>
       <r>    4.3619    1.0000 </r>
       <r>    7.3845    1.0000 </r>
       <r>    8.3494    1.0000 </r>
       <r>    9.4809    0.0000 </r>
       <r>   12.1076    0.0000 </r>
       <r>   17.2694    0.0000 </r>
       <r>   20.7210    0.0000 </r>
       <r>   22.2959    0.0000 </r>
       <r>   28.4698    0.0000 </r>
       <r>   32.0508    0.0000 </r>
       <r>   36.5437    0.0000 </r>
      </set>
      <set comment="kpoint 69">
       <r>    3.8656    1.0000 </r>
       <r>    4.3619    1.0000 </r>
       <r>    7.3845    1.0000 </r>
       <r>    8.3494    1.0000 </r>
       <r>    9.4809    0.0000 </r>
       <r>   12.1075    0.0000 </r>
       <r>   17.2694    0.0000 </r>
       <r>   20.7210    0.0000 </r>
       <r>   22.2959    0.0000 </r>
       <r>   28.4698    0.0000 </r>
       <r>   32.0509    0.0000 </r>
       <r>   36.5438    0.0000 </r>
      </set>
      <set comment="kpoint 70">
       <r>    3.8656    1.0000 </r>
       <r>    4.3619    1.0000 </r>
       <r>    7.3844    1.0000 </r>
       <r>    8.3493    1.0000 </r>
       <r>    9.4809    0.0000 </r>
       <r>   12.1076    0.0000 </r>
       <r>   17.2695    0.0000 </r>
       <r>   20.7211    0.0000 </r>
       <r>   22.2958    0.0000 </r>
       <r>   28.4696    0.0000 </r>
       <r>   32.0511    0.0000 </r>
       <r>   36.5437    0.0000 </r>
      </set>
      <set comment="kpoint 71">
       <r>    3.8656    1.0000 </r>
       <r>    4.3619    1.0000 </r>
       <r>    7.3845    1.0000 </r>
       <r>    8.3494    1.0000 </r>
       <r>    9.4809    0.0000 </r>
       <r>   12.1076    0.0000 </r>
       <r>   17.2694    0.0000 </r>
       <r>   20.7210    0.0000 </r>
       <r>   22.2959    0.0000 </r>
       <r>   28.4698    0.0000 </r>
       <r>   32.0509    0.0000 </r>
       <r>   36.5437    0.0000 </r>
      </set>
      <set comment="kpoint 72">
       <r>    3.8656    1.0000 </r>
       <r>    4.3619    1.0000 </r>
       <r>    7.3845    1.0000 </r>
       <r>    8.3494    1.0000 </r>
       <r>    9.4809    0.0000 </r>
       <r>   12.1075    0.0000 </r>
       <r>   17.2694    0.0000 </r>
       <r>   20.7210    0.0000 </r>
       <r>   22.2960    0.0000 </r>
       <r>   28.4698    0.0000 </r>
       <r>   32.0509    0.0000 </r>
       <r>   36.5438    0.0000 </r>
      </set>
      <set comment="kpoint 73">
       <r>    3.8656    1.0000 </r>
       <r>    4.3619    1.0000 </r>
       <r>    7.3844    1.0000 </r>
       <r>    8.3493    1.0000 </r>
       <r>    9.4809    0.0000 </r>
       <r>   12.1076    0.0000 </r>
       <r>   17.2695    0.0000 </r>
       <r>   20.7211    0.0000 </r>
       <r>   22.2958    0.0000 </r>
       <r>   28.4696    0.0000 </r>
       <r>   32.0511    0.0000 </r>
       <r>   36.5437    0.0000 </r>
      </set>
      <set comment="kpoint 74">
       <r>    4.4233    1.0000 </r>
       <r>    5.2683    1.0000 </r>
       <r>    6.2538    1.0000 </r>
       <r>    7.7569    1.0000 </r>
       <r>    8.7698    1.0000 </r>
       <r>   13.3243    0.0000 </r>
       <r>   17.3882    0.0000 </r>
       <r>   18.1899    0.0000 </r>
       <r>   25.0185    0.0000 </r>
       <r>   27.4441    0.0000 </r>
       <r>   35.1296    0.0000 </r>
       <r>   35.7329    0.0000 </r>
      </set>
      <set comment="kpoint 75">
       <r>    4.4233    1.0000 </r>
       <r>    5.2683    1.0000 </r>
       <r>    6.2538    1.0000 </r>
       <r>    7.7569    1.0000 </r>
       <r>    8.7698    1.0000 </r>
       <r>   13.3243    0.0000 </r>
       <r>   17.3882    0.0000 </r>
       <r>   18.1899    0.0000 </r>
       <r>   25.0185    0.0000 </r>
       <r>   27.4441    0.0000 </r>
       <r>   35.1296    0.0000 </r>
       <r>   35.7329    0.0000 </r>
      </set>
      <set comment="kpoint 76">
       <r>    4.4233    1.0000 </r>
       <r>    5.2683    1.0000 </r>
       <r>    6.2538    1.0000 </r>
       <r>    7.7569    1.0000 </r>
       <r>    8.7698    1.0000 </r>
       <r>   13.3243    0.0000 </r>
       <r>   17.3882    0.0000 </r>
       <r>   18.1899    0.0000 </r>
       <r>   25.0185    0.0000 </r>
       <r>   27.4441    0.0000 </r>
       <r>   35.1296    0.0000 </r>
       <r>   35.7329    0.0000 </r>
      </set>
      <set comment="kpoint 77">
       <r>    4.4233    1.0000 </r>
       <r>    5.2682    1.0000 </r>
       <r>    6.2538    1.0000 </r>
       <r>    7.7570    1.0000 </r>
       <r>    8.7698    1.0000 </r>
       <r>   13.3242    0.0000 </r>
       <r>   17.3881    0.0000 </r>
       <r>   18.1899    0.0000 </r>
       <r>   25.0186    0.0000 </r>
       <r>   27.4442    0.0000 </r>
       <r>   35.1295    0.0000 </r>
       <r>   35.7330    0.0000 </r>
      </set>
      <set comment="kpoint 78">
       <r>    4.4233    1.0000 </r>
       <r>    5.2682    1.0000 </r>
       <r>    6.2538    1.0000 </r>
       <r>    7.7570    1.0000 </r>
       <r>    8.7698    1.0000 </r>
       <r>   13.3242    0.0000 </r>
       <r>   17.3881    0.0000 </r>
       <r>   18.1899    0.0000 </r>
       <r>   25.0186    0.0000 </r>
       <r>   27.4442    0.0000 </r>
       <r>   35.1295    0.0000 </r>
       <r>   35.7330    0.0000 </r>
      </set>
      <set comment="kpoint 79">
       <r>    4.4233    1.0000 </r>
       <r>    5.2682    1.0000 </r>
       <r>    6.2538    1.0000 </r>
       <r>    7.7570    1.0000 </r>
       <r>    8.7698    1.0000 </r>
       <r>   13.3242    0.0000 </r>
       <r>   17.3881    0.0000 </r>
       <r>   18.1899    0.0000 </r>
       <r>   25.0186    0.0000 </r>
       <r>   27.4442    0.0000 </r>
       <r>   35.1295    0.0000 </r>
       <r>   35.7330    0.0000 </r>
      </set>
      <set comment="kpoint 80">
       <r>    3.4003    1.0000 </r>
       <r>    3.7863    1.0000 </r>
       <r>    9.2809    0.8674 </r>
       <r>    9.6788    0.0000 </r>
       <r>    9.6788    0.0000 </r>
       <r>   11.3490    0.0000 </r>
       <r>   17.0792    0.0000 </r>
       <r>   20.3759    0.0000 </r>
       <r>   20.3761    0.0000 </r>
       <r>   28.1181    0.0000 </r>
       <r>   30.9317    0.0000 </r>
       <r>   37.1731    0.0000 </r>
      </set>
      <set comment="kpoint 81">
       <r>    3.4003    1.0000 </r>
       <r>    3.7863    1.0000 </r>
       <r>    9.2809    0.8674 </r>
       <r>    9.6788    0.0000 </r>
       <r>    9.6788    0.0000 </r>
       <r>   11.3490    0.0000 </r>
       <r>   17.0792    0.0000 </r>
       <r>   20.3759    0.0000 </r>
       <r>   20.3761    0.0000 </r>
       <r>   28.1181    0.0000 </r>
       <r>   30.9317    0.0000 </r>
       <r>   37.1731    0.0000 </r>
      </set>
      <set comment="kpoint 82">
       <r>    3.4003    1.0000 </r>
       <r>    3.7863    1.0000 </r>
       <r>    9.2809    0.8674 </r>
       <r>    9.6788    0.0000 </r>
       <r>    9.6788    0.0000 </r>
       <r>   11.3490    0.0000 </r>
       <r>   17.0792    0.0000 </r>
       <r>   20.3759    0.0000 </r>
       <r>   20.3761    0.0000 </r>
       <r>   28.1181    0.0000 </r>
       <r>   30.9317    0.0000 </r>
       <r>   37.1731    0.0000 </r>
      </set>
      <set comment="kpoint 83">
       <r>    4.5069    1.0000 </r>
       <r>    4.8943    1.0000 </r>
       <r>    5.7147    1.0000 </r>
       <r>    8.0270    1.0000 </r>
       <r>    8.4514    1.0000 </r>
       <r>   11.0545    0.0000 </r>
       <r>   19.3105    0.0000 </r>
       <r>   21.1657    0.0000 </r>
       <r>   24.2169    0.0000 </r>
       <r>   30.5956    0.0000 </r>
       <r>   30.7945    0.0000 </r>
       <r>   36.1452    0.0000 </r>
      </set>
      <set comment="kpoint 84">
       <r>    4.5069    1.0000 </r>
       <r>    4.8943    1.0000 </r>
       <r>    5.7147    1.0000 </r>
       <r>    8.0270    1.0000 </r>
       <r>    8.4514    1.0000 </r>
       <r>   11.0545    0.0000 </r>
       <r>   19.3105    0.0000 </r>
       <r>   21.1657    0.0000 </r>
       <r>   24.2169    0.0000 </r>
       <r>   30.5956    0.0000 </r>
       <r>   30.7945    0.0000 </r>
       <r>   36.1452    0.0000 </r>
      </set>
      <set comment="kpoint 85">
       <r>    4.5069    1.0000 </r>
       <r>    4.8943    1.0000 </r>
       <r>    5.7147    1.0000 </r>
       <r>    8.0270    1.0000 </r>
       <r>    8.4514    1.0000 </r>
       <r>   11.0545    0.0000 </r>
       <r>   19.3105    0.0000 </r>
       <r>   21.1657    0.0000 </r>
       <r>   24.2169    0.0000 </r>
       <r>   30.5956    0.0000 </r>
       <r>   30.7945    0.0000 </r>
       <r>   36.1452    0.0000 </r>
      </set>
      <set comment="kpoint 86">
       <r>    4.5069    1.0000 </r>
       <r>    4.8943    1.0000 </r>
       <r>    5.7147    1.0000 </r>
       <r>    8.0270    1.0000 </r>
       <r>    8.4514    1.0000 </r>
       <r>   11.0546    0.0000 </r>
       <r>   19.3105    0.0000 </r>
       <r>   21.1657    0.0000 </r>
       <r>   24.2168    0.0000 </r>
       <r>   30.5955    0.0000 </r>
       <r>   30.7945    0.0000 </r>
       <r>   36.1451    0.0000 </r>
      </set>
      <set comment="kpoint 87">
       <r>    4.5069    1.0000 </r>
       <r>    4.8943    1.0000 </r>
       <r>    5.7147    1.0000 </r>
       <r>    8.0270    1.0000 </r>
       <r>    8.4514    1.0000 </r>
       <r>   11.0545    0.0000 </r>
       <r>   19.3105    0.0000 </r>
       <r>   21.1657    0.0000 </r>
       <r>   24.2169    0.0000 </r>
       <r>   30.5956    0.0000 </r>
       <r>   30.7945    0.0000 </r>
       <r>   36.1452    0.0000 </r>
      </set>
      <set comment="kpoint 88">
       <r>    4.5069    1.0000 </r>
       <r>    4.8943    1.0000 </r>
       <r>    5.7147    1.0000 </r>
       <r>    8.0270    1.0000 </r>
       <r>    8.4514    1.0000 </r>
       <r>   11.0546    0.0000 </r>
       <r>   19.3105    0.0000 </r>
       <r>   21.1657    0.0000 </r>
       <r>   24.2168    0.0000 </r>
       <r>   30.5955    0.0000 </r>
       <r>   30.7945    0.0000 </r>
       <r>   36.1451    0.0000 </r>
      </set>
      <set comment="kpoint 89">
       <r>    4.5069    1.0000 </r>
       <r>    4.8943    1.0000 </r>
       <r>    5.7147    1.0000 </r>
       <r>    8.0270    1.0000 </r>
       <r>    8.4514    1.0000 </r>
       <r>   11.0546    0.0000 </r>
       <r>   19.3105    0.0000 </r>
       <r>   21.1657    0.0000 </r>
       <r>   24.2168    0.0000 </r>
       <r>   30.5955    0.0000 </r>
       <r>   30.7945    0.0000 </r>
       <r>   36.1451    0.0000 </r>
      </set>
      <set comment="kpoint 90">
       <r>    4.5069    1.0000 </r>
       <r>    4.8943    1.0000 </r>
       <r>    5.7147    1.0000 </r>
       <r>    8.0270    1.0000 </r>
       <r>    8.4514    1.0000 </r>
       <r>   11.0546    0.0000 </r>
       <r>   19.3105    0.0000 </r>
       <r>   21.1657    0.0000 </r>
       <r>   24.2168    0.0000 </r>
       <r>   30.5955    0.0000 </r>
       <r>   30.7945    0.0000 </r>
       <r>   36.1451    0.0000 </r>
      </set>
      <set comment="kpoint 91">
       <r>    4.5069    1.0000 </r>
       <r>    4.8943    1.0000 </r>
       <r>    5.7147    1.0000 </r>
       <r>    8.0270    1.0000 </r>
       <r>    8.4514    1.0000 </r>
       <r>   11.0545    0.0000 </r>
       <r>   19.3105    0.0000 </r>
       <r>   21.1657    0.0000 </r>
       <r>   24.2169    0.0000 </r>
       <r>   30.5956    0.0000 </r>
       <r>   30.7945    0.0000 </r>
       <r>   36.1452    0.0000 </r>
      </set>
      <set comment="kpoint 92">
       <r>    4.5069    1.0000 </r>
       <r>    4.8943    1.0000 </r>
       <r>    5.7147    1.0000 </r>
       <r>    8.0270    1.0000 </r>
       <r>    8.4514    1.0000 </r>
       <r>   11.0546    0.0000 </r>
       <r>   19.3105    0.0000 </r>
       <r>   21.1657    0.0000 </r>
       <r>   24.2168    0.0000 </r>
       <r>   30.5955    0.0000 </r>
       <r>   30.7945    0.0000 </r>
       <r>   36.1451    0.0000 </r>
      </set>
      <set comment="kpoint 93">
       <r>    4.5069    1.0000 </r>
       <r>    4.8943    1.0000 </r>
       <r>    5.7147    1.0000 </r>
       <r>    8.0270    1.0000 </r>
       <r>    8.4514    1.0000 </r>
       <r>   11.0546    0.0000 </r>
       <r>   19.3105    0.0000 </r>
       <r>   21.1657    0.0000 </r>
       <r>   24.2168    0.0000 </r>
       <r>   30.5955    0.0000 </r>
       <r>   30.7945    0.0000 </r>
       <r>   36.1451    0.0000 </r>
      </set>
      <set comment="kpoint 94">
       <r>    4.5069    1.0000 </r>
       <r>    4.8943    1.0000 </r>
       <r>    5.7147    1.0000 </r>
       <r>    8.0270    1.0000 </r>
       <r>    8.4514    1.0000 </r>
       <r>   11.0545    0.0000 </r>
       <r>   19.3105    0.0000 </r>
       <r>   21.1657    0.0000 </r>
       <r>   24.2169    0.0000 </r>
       <r>   30.5956    0.0000 </r>
       <r>   30.7945    0.0000 </r>
       <r>   36.1452    0.0000 </r>
      </set>
      <set comment="kpoint 95">
       <r>    4.8317    1.0000 </r>
       <r>    4.9707    1.0000 </r>
       <r>    5.9501    1.0000 </r>
       <r>    7.5782    1.0000 </r>
       <r>    9.1794    1.0000 </r>
       <r>   14.3614    0.0000 </r>
       <r>   14.9809    0.0000 </r>
       <r>   20.6839    0.0000 </r>
       <r>   22.5026    0.0000 </r>
       <r>   29.4852    0.0000 </r>
       <r>   33.5286    0.0000 </r>
       <r>   38.2059    0.0000 </r>
      </set>
      <set comment="kpoint 96">
       <r>    4.8317    1.0000 </r>
       <r>    4.9707    1.0000 </r>
       <r>    5.9501    1.0000 </r>
       <r>    7.5781    1.0000 </r>
       <r>    9.1794    1.0000 </r>
       <r>   14.3614    0.0000 </r>
       <r>   14.9809    0.0000 </r>
       <r>   20.6838    0.0000 </r>
       <r>   22.5026    0.0000 </r>
       <r>   29.4852    0.0000 </r>
       <r>   33.5286    0.0000 </r>
       <r>   38.2057    0.0000 </r>
      </set>
      <set comment="kpoint 97">
       <r>    4.8317    1.0000 </r>
       <r>    4.9707    1.0000 </r>
       <r>    5.9501    1.0000 </r>
       <r>    7.5781    1.0000 </r>
       <r>    9.1794    1.0000 </r>
       <r>   14.3614    0.0000 </r>
       <r>   14.9809    0.0000 </r>
       <r>   20.6838    0.0000 </r>
       <r>   22.5026    0.0000 </r>
       <r>   29.4852    0.0000 </r>
       <r>   33.5286    0.0000 </r>
       <r>   38.2058    0.0000 </r>
      </set>
      <set comment="kpoint 98">
       <r>    4.8317    1.0000 </r>
       <r>    4.9707    1.0000 </r>
       <r>    5.9500    1.0000 </r>
       <r>    7.5782    1.0000 </r>
       <r>    9.1793    1.0000 </r>
       <r>   14.3613    0.0000 </r>
       <r>   14.9808    0.0000 </r>
       <r>   20.6839    0.0000 </r>
       <r>   22.5027    0.0000 </r>
       <r>   29.4853    0.0000 </r>
       <r>   33.5286    0.0000 </r>
       <r>   38.2058    0.0000 </r>
      </set>
      <set comment="kpoint 99">
       <r>    4.8317    1.0000 </r>
       <r>    4.9707    1.0000 </r>
       <r>    5.9501    1.0000 </r>
       <r>    7.5781    1.0000 </r>
       <r>    9.1793    1.0000 </r>
       <r>   14.3613    0.0000 </r>
       <r>   14.9809    0.0000 </r>
       <r>   20.6839    0.0000 </r>
       <r>   22.5026    0.0000 </r>
       <r>   29.4852    0.0000 </r>
       <r>   33.5286    0.0000 </r>
       <r>   38.2059    0.0000 </r>
      </set>
      <set comment="kpoint 100">
       <r>    4.8317    1.0000 </r>
       <r>    4.9707    1.0000 </r>
       <r>    5.9501    1.0000 </r>
       <r>    7.5782    1.0000 </r>
       <r>    9.1794    1.0000 </r>
       <r>   14.3614    0.0000 </r>
       <r>   14.9809    0.0000 </r>
       <r>   20.6838    0.0000 </r>
       <r>   22.5026    0.0000 </r>
       <r>   29.4852    0.0000 </r>
       <r>   33.5286    0.0000 </r>
       <r>   38.2058    0.0000 </r>
      </set>
[...]
       </set>
       <set comment="band 5">
        <r>  0.0093  0.0012  0.0005  0.0002  0.0679  0.0020  0.0835  0.2537  0.5548 </r>
       </set>
       <set comment="band 6">
        <r>  0.5313  0.0378  0.0142  0.0047  0.0468  0.0091  0.0422  0.1589  0.0023 </r>
       </set>
       <set comment="band 7">
        <r>  0.0000  0.0326  0.2911  0.1796  0.0342  0.0742  0.1770  0.0050  0.0265 </r>
       </set>
       <set comment="band 8">
        <r>  0.1123  0.3347  0.1255  0.0418  0.0000  0.1359  0.0680  0.0117  0.0002 </r>
       </set>
       <set comment="band 9">
        <r>  0.0000  0.0685  0.0165  0.2682  0.1807  0.0229  0.0073  0.0659  0.0784 </r>
       </set>
       <set comment="band 10">
        <r>  0.0000  0.0639  0.0548  0.0957  0.0073  0.0059  0.0331  0.0214  0.0416 </r>
       </set>
       <set comment="band 11">
        <r>  0.0000  0.0108  0.0040  0.0013  0.1749  0.0029  0.0857  0.0917  0.0571 </r>
       </set>
       <set comment="band 12">
        <r>  0.0000  0.0272  0.0289  0.0291  0.0254  0.0114  0.0722  0.0567  0.1075 </r>
       </set>
      </set>
      <set comment="kpoint 102">
       <set comment="band 1">
        <r>  0.0807  0.0459  0.0000  0.0230  0.0001  0.2208  0.0698  0.4416  0.0000 </r>
       </set>
       <set comment="band 2">
        <r>  0.0000  0.0147  0.0013  0.0295  0.0076  0.4988  0.0000  0.2494  0.0606 </r>
       </set>
       <set comment="band 3">
        <r>  0.0000  0.0071  0.1058  0.0142  0.0808  0.0200  0.0000  0.0100  0.6462 </r>
       </set>
       <set comment="band 4">
        <r>  0.0083  0.0132  0.0000  0.0066  0.7823  0.0007  0.0265  0.0013  0.0978 </r>
       </set>
       <set comment="band 5">
        <r>  0.0093  0.0012  0.0000  0.0006  0.0285  0.0413  0.8058  0.0826  0.0036 </r>
       </set>
       <set comment="band 6">
        <r>  0.5313  0.0378  0.0000  0.0189  0.0006  0.0553  0.0928  0.1106  0.0001 </r>
       </set>
       <set comment="band 7">
        <r>  0.0000  0.0326  0.4055  0.0652  0.0206  0.0879  0.0000  0.0439  0.1646 </r>
       </set>
       <set comment="band 8">
        <r>  0.1123  0.3347  0.0000  0.1674  0.1032  0.0327  0.0015  0.0655  0.0129 </r>
       </set>
       <set comment="band 9">
        <r>  0.0000  0.0685  0.1477  0.1371  0.0067  0.1969  0.0000  0.0985  0.0532 </r>
       </set>
       <set comment="band 10">
        <r>  0.0000  0.0639  0.0227  0.1277  0.0119  0.0013  0.0000  0.0006  0.0954 </r>
       </set>
       <set comment="band 11">
        <r>  0.0000  0.0108  0.0000  0.0054  0.0652  0.1125  0.0013  0.2251  0.0082 </r>
       </set>
       <set comment="band 12">
        <r>  0.0000  0.0263  0.0041  0.0522  0.0296  0.0078  0.0000  0.0038  0.2303 </r>
       </set>
      </set>
      <set comment="kpoint 103">
       <set comment="band 1">
        <r>  0.0807  0.0000  0.0172  0.0517  0.0007  0.0020  0.2843  0.0742  0.3711 </r>
       </set>
       <set comment="band 2">
        <r>  0.0000  0.0228  0.0170  0.0057  0.2315  0.0772  0.2857  0.1269  0.0952 </r>
       </set>
       <set comment="band 3">
        <r>  0.0000  0.1224  0.0035  0.0012  0.3011  0.1004  0.2000  0.0889  0.0666 </r>
       </set>
       <set comment="band 4">
        <r>  0.0083  0.0000  0.0050  0.0149  0.0870  0.2610  0.0385  0.3822  0.1398 </r>
       </set>
       <set comment="band 5">
        <r>  0.0093  0.0000  0.0005  0.0014  0.1466  0.4399  0.0202  0.2475  0.1077 </r>
       </set>
       <set comment="band 6">
        <r>  0.5313  0.0000  0.0142  0.0426  0.0040  0.0119  0.0860  0.0120  0.1455 </r>
       </set>
       <set comment="band 7">
        <r>  0.0000  0.4907  0.0095  0.0032  0.2227  0.0742  0.0113  0.0050  0.0038 </r>
       </set>
       <set comment="band 8">
        <r>  0.1123  0.0000  0.1255  0.3765  0.0136  0.0407  0.0151  0.0163  0.1301 </r>
       </set>
       <set comment="band 9">
        <r>  0.0000  0.0027  0.2629  0.0876  0.0686  0.0229  0.1484  0.0659  0.0495 </r>
       </set>
       <set comment="band 10">
        <r>  0.0000  0.0168  0.1481  0.0494  0.0177  0.0059  0.0481  0.0214  0.0160 </r>
       </set>
       <set comment="band 11">
        <r>  0.0000  0.0000  0.0040  0.0121  0.0003  0.0010  0.1754  0.1796  0.0558 </r>
       </set>
       <set comment="band 12">
        <r>  0.0001  0.0132  0.0546  0.0186  0.0350  0.0105  0.1264  0.0586  0.0431 </r>
       </set>
      </set>
      <set comment="kpoint 104">
       <set comment="band 1">
        <r>  0.0807  0.0000  0.0172  0.0517  0.0603  0.1808  0.2149  0.1538  0.1225 </r>
       </set>
       <set comment="band 2">
        <r>  0.0000  0.0084  0.0278  0.0093  0.5509  0.1836  0.0461  0.0205  0.0154 </r>
       </set>
       <set comment="band 3">
        <r>  0.0000  0.0328  0.0707  0.0236  0.0924  0.0308  0.3565  0.1584  0.1188 </r>
       </set>
       <set comment="band 4">
        <r>  0.0083  0.0000  0.0050  0.0149  0.0785  0.2355  0.0628  0.4283  0.1034 </r>
       </set>
       <set comment="band 5">
        <r>  0.0093  0.0000  0.0005  0.0014  0.0705  0.2116  0.0835  0.0441  0.5521 </r>
       </set>
       <set comment="band 6">
        <r>  0.5313  0.0000  0.0142  0.0426  0.0394  0.1183  0.0422  0.0497  0.0097 </r>
       </set>
       <set comment="band 7">
        <r>  0.0000  0.1152  0.2911  0.0970  0.0017  0.0006  0.1770  0.0787  0.0590 </r>
       </set>
       <set comment="band 8">
        <r>  0.1123  0.0000  0.1255  0.3766  0.0001  0.0004  0.0680  0.1472  0.0001 </r>
       </set>
       <set comment="band 9">
        <r>  0.0000  0.3312  0.0165  0.0055  0.2567  0.0856  0.0073  0.0032  0.0024 </r>
       </set>
       <set comment="band 10">
        <r>  0.0000  0.1412  0.0548  0.0183  0.0378  0.0126  0.0331  0.0147  0.0110 </r>
       </set>
       <set comment="band 11">
        <r>  0.0000  0.0000  0.0040  0.0121  0.0307  0.0920  0.0857  0.0026  0.2013 </r>
       </set>
       <set comment="band 12">
        <r>  0.0001  0.0465  0.0291  0.0095  0.1065  0.0382  0.0725  0.0315  0.0245 </r>
       </set>
      </set>
      <set comment="kpoint 105">
       <set comment="band 1">
        <r>  0.0807  0.0459  0.0172  0.0057  0.1624  0.0585  0.2844  0.0177  0.2094 </r>
       </set>
       <set comment="band 2">
        <r>  0.0000  0.0147  0.0170  0.0137  0.3228  0.1836  0.2856  0.0205  0.0039 </r>
       </set>
       <set comment="band 3">
        <r>  0.0000  0.0071  0.0035  0.1165  0.0700  0.0308  0.1999  0.1584  0.2978 </r>
       </set>
       <set comment="band 4">
        <r>  0.0083  0.0132  0.0050  0.0017  0.2157  0.5673  0.0385  0.0760  0.0111 </r>
       </set>
       <set comment="band 5">
        <r>  0.0093  0.0012  0.0005  0.0002  0.0084  0.0615  0.0202  0.6259  0.2460 </r>
       </set>
       <set comment="band 6">
        <r>  0.5313  0.0378  0.0142  0.0047  0.0364  0.0195  0.0860  0.0044  0.1130 </r>
       </set>
       <set comment="band 7">
        <r>  0.0000  0.0326  0.0095  0.4612  0.1079  0.0006  0.0113  0.0787  0.1186 </r>
       </set>
       <set comment="band 8">
        <r>  0.1123  0.3347  0.1255  0.0418  0.1007  0.0352  0.0151  0.0218  0.0430 </r>
       </set>
       <set comment="band 9">
        <r>  0.0000  0.0685  0.2629  0.0218  0.1180  0.0856  0.1484  0.0032  0.0001 </r>
       </set>
       <set comment="band 10">
        <r>  0.0000  0.0639  0.1481  0.0023  0.0006  0.0126  0.0481  0.0147  0.0332 </r>
       </set>
       <set comment="band 11">
        <r>  0.0000  0.0108  0.0040  0.0013  0.0265  0.1512  0.1755  0.0294  0.0296 </r>
       </set>
       <set comment="band 12">
        <r>  0.0000  0.0254  0.0519  0.0033  0.0000  0.0366  0.1293  0.0310  0.0737 </r>
       </set>
      </set>
      <set comment="kpoint 106">
       <set comment="band 1">
        <r>  0.0807  0.0459  0.0172  0.0057  0.1689  0.0520  0.2149  0.2826  0.0139 </r>
       </set>
       <set comment="band 2">
        <r>  0.0000  0.0147  0.0278  0.0030  0.4292  0.0771  0.0461  0.1270  0.1370 </r>
       </set>
       <set comment="band 3">
        <r>  0.0000  0.0071  0.0707  0.0493  0.0004  0.1004  0.3565  0.0889  0.2108 </r>
       </set>
       <set comment="band 4">
        <r>  0.0083  0.0132  0.0050  0.0017  0.1764  0.6065  0.0628  0.0573  0.0055 </r>
       </set>
       <set comment="band 5">
        <r>  0.0093  0.0012  0.0005  0.0002  0.0679  0.0020  0.0835  0.2537  0.5548 </r>
       </set>
       <set comment="band 6">
        <r>  0.5313  0.0378  0.0142  0.0047  0.0468  0.0091  0.0422  0.1589  0.0023 </r>
       </set>
       <set comment="band 7">
        <r>  0.0000  0.0326  0.2911  0.1796  0.0342  0.0742  0.1770  0.0050  0.0265 </r>
       </set>
       <set comment="band 8">
        <r>  0.1123  0.3347  0.1255  0.0418  0.0000  0.1359  0.0680  0.0117  0.0002 </r>
       </set>
       <set comment="band 9">
        <r>  0.0000  0.0685  0.0165  0.2682  0.1807  0.0229  0.0073  0.0659  0.0784 </r>
       </set>
       <set comment="band 10">
        <r>  0.0000  0.0639  0.0548  0.0957  0.0073  0.0059  0.0331  0.0214  0.0416 </r>
       </set>
       <set comment="band 11">
        <r>  0.0000  0.0108  0.0040  0.0013  0.1749  0.0029  0.0857  0.0917  0.0571 </r>
       </set>
       <set comment="band 12">
        <r>  0.0000  0.0275  0.0299  0.0294  0.0241  0.0111  0.0734  0.0580  0.1071 </r>
       </set>
      </set>
      <set comment="kpoint 107">
       <set comment="band 1">
        <r>  0.0317  0.0118  0.0177  0.0059  0.5023  0.0157  0.1883  0.0078  0.0628 </r>
       </set>
       <set comment="band 2">
        <r>  0.0000  0.0148  0.0221  0.0074  0.1909  0.0000  0.6445  0.0000  0.0239 </r>
       </set>
       <set comment="band 3">
        <r>  0.0000  0.0467  0.0000  0.0934  0.0419  0.1256  0.0000  0.2511  0.3349 </r>
       </set>
       <set comment="band 4">
        <r>  0.0274  0.0033  0.0049  0.0016  0.0163  0.5866  0.0061  0.2933  0.0020 </r>
       </set>
       <set comment="band 5">
        <r>  0.0000  0.0000  0.0000  0.0000  0.0549  0.1647  0.0000  0.3294  0.4392 </r>
       </set>
       <set comment="band 6">
        <r>  0.0000  0.1879  0.0000  0.3758  0.0150  0.0450  0.0000  0.0900  0.1200 </r>
       </set>
       <set comment="band 7">
        <r>  0.6738  0.0040  0.0060  0.0020  0.0564  0.0325  0.0212  0.0163  0.0071 </r>
       </set>
       <set comment="band 8">
        <r>  0.0000  0.2050  0.3076  0.1025  0.0338  0.0000  0.1140  0.0000  0.0042 </r>
       </set>
       <set comment="band 9">
        <r>  0.0015  0.1254  0.1880  0.0627  0.2071  0.0506  0.0777  0.0253  0.0259 </r>
       </set>
       <set comment="band 10">
        <r>  0.0000  0.0021  0.0032  0.0011  0.1367  0.0000  0.4617  0.0000  0.0171 </r>
       </set>
       <set comment="band 11">
        <r>  0.1106  0.0793  0.1189  0.0396  0.1217  0.0077  0.0456  0.0039  0.0152 </r>
       </set>
       <set comment="band 12">
        <r>  0.0000  0.0031  0.0000  0.0062  0.0112  0.0335  0.0000  0.0670  0.0893 </r>
       </set>
      </set>
      <set comment="kpoint 108">
       <set comment="band 1">
        <r>  0.0317  0.0118  0.0000  0.0236  0.0605  0.4575  0.0227  0.2287  0.0076 </r>
       </set>
       <set comment="band 2">
        <r>  0.0000  0.0148  0.0221  0.0074  0.0477  0.1432  0.0000  0.2864  0.3819 </r>
       </set>
       <set comment="band 3">
        <r>  0.0000  0.0467  0.0701  0.0234  0.0419  0.1256  0.0000  0.2511  0.3348 </r>
       </set>
       <set comment="band 4">
        <r>  0.0274  0.0033  0.0000  0.0066  0.5287  0.0742  0.1983  0.0371  0.0661 </r>
       </set>
       <set comment="band 5">
        <r>  0.0000  0.0000  0.0000  0.0000  0.2196  0.0000  0.7412  0.0000  0.0275 </r>
       </set>
       <set comment="band 6">
        <r>  0.0000  0.1879  0.2819  0.0940  0.0150  0.0450  0.0000  0.0900  0.1200 </r>
       </set>
       <set comment="band 7">
        <r>  0.6738  0.0040  0.0000  0.0080  0.0756  0.0134  0.0284  0.0067  0.0095 </r>
       </set>
       <set comment="band 8">
        <r>  0.0000  0.2050  0.3076  0.1025  0.0084  0.0253  0.0000  0.0507  0.0676 </r>
       </set>
       <set comment="band 9">
        <r>  0.0015  0.1254  0.0000  0.2507  0.0011  0.2566  0.0004  0.1283  0.0001 </r>
       </set>
       <set comment="band 10">
        <r>  0.0000  0.0021  0.0032  0.0011  0.0342  0.1026  0.0000  0.2052  0.2736 </r>
       </set>
       <set comment="band 11">
        <r>  0.1106  0.0793  0.0000  0.1585  0.0627  0.0667  0.0235  0.0333  0.0078 </r>
       </set>
       <set comment="band 12">
        <r>  0.0000  0.0031  0.0046  0.0015  0.0112  0.0335  0.0000  0.0670  0.0893 </r>
       </set>
      </set>
      <set comment="kpoint 109">
       <set comment="band 1">
        <r>  0.0317  0.0118  0.0177  0.0059  0.2141  0.3038  0.0803  0.1519  0.0268 </r>
       </set>
       <set comment="band 2">
        <r>  0.0000  0.0148  0.0000  0.0295  0.0477  0.1432  0.0000  0.2864  0.3819 </r>
       </set>
       <set comment="band 3">
        <r>  0.0000  0.0467  0.0701  0.0234  0.1674  0.0000  0.5651  0.0000  0.0209 </r>
       </set>
       <set comment="band 4">
        <r>  0.0274  0.0033  0.0049  0.0016  0.3593  0.2436  0.1347  0.1218  0.0449 </r>
       </set>
       <set comment="band 5">
        <r>  0.0000  0.0000  0.0000  0.0000  0.0549  0.1647  0.0000  0.3294  0.4392 </r>
       </set>
       <set comment="band 6">
        <r>  0.0000  0.1879  0.2819  0.0940  0.0600  0.0000  0.2025  0.0000  0.0075 </r>
       </set>
       <set comment="band 7">
        <r>  0.6738  0.0040  0.0060  0.0020  0.0014  0.0876  0.0005  0.0438  0.0002 </r>
       </set>
       <set comment="band 8">
        <r>  0.0000  0.2051  0.0000  0.4101  0.0085  0.0253  0.0000  0.0507  0.0676 </r>
       </set>
       <set comment="band 9">
        <r>  0.0015  0.1254  0.1880  0.0627  0.1784  0.0793  0.0669  0.0397  0.0223 </r>
       </set>
       <set comment="band 10">
        <r>  0.0000  0.0021  0.0000  0.0043  0.0342  0.1026  0.0000  0.2051  0.2736 </r>
       </set>
       <set comment="band 11">
        <r>  0.1106  0.0793  0.1189  0.0396  0.0097  0.1197  0.0036  0.0599  0.0012 </r>
       </set>
       <set comment="band 12">
        <r>  0.0000  0.0031  0.0046  0.0015  0.0447  0.0000  0.1508  0.0000  0.0056 </r>
       </set>
      </set>
      <set comment="kpoint 110">
       <set comment="band 1">
        <r>  0.0317  0.0118  0.0177  0.0059  0.5023  0.0157  0.1883  0.0078  0.0628 </r>
       </set>
       <set comment="band 2">
        <r>  0.0000  0.0148  0.0221  0.0074  0.1909  0.0000  0.6445  0.0000  0.0239 </r>
       </set>
       <set comment="band 3">
        <r>  0.0000  0.0467  0.0000  0.0934  0.0419  0.1256  0.0000  0.2511  0.3348 </r>
       </set>
       <set comment="band 4">
        <r>  0.0274  0.0033  0.0049  0.0016  0.0163  0.5866  0.0061  0.2933  0.0020 </r>
       </set>
       <set comment="band 5">
        <r>  0.0000  0.0000  0.0000  0.0000  0.0549  0.1647  0.0000  0.3294  0.4392 </r>
       </set>
       <set comment="band 6">
        <r>  0.0000  0.1879  0.0000  0.3758  0.0150  0.0450  0.0000  0.0900  0.1200 </r>
       </set>
       <set comment="band 7">
        <r>  0.6738  0.0040  0.0060  0.0020  0.0564  0.0325  0.0212  0.0163  0.0071 </r>
       </set>
       <set comment="band 8">
        <r>  0.0000  0.2050  0.3076  0.1025  0.0338  0.0000  0.1140  0.0000  0.0042 </r>
       </set>
       <set comment="band 9">
        <r>  0.0015  0.1254  0.1880  0.0627  0.2071  0.0506  0.0777  0.0253  0.0259 </r>
       </set>
       <set comment="band 10">
        <r>  0.0000  0.0021  0.0032  0.0011  0.1367  0.0000  0.4617  0.0000  0.0171 </r>
       </set>
       <set comment="band 11">
        <r>  0.1106  0.0793  0.1189  0.0396  0.1217  0.0077  0.0456  0.0039  0.0152 </r>
       </set>
       <set comment="band 12">
        <r>  0.0000  0.0031  0.0000  0.0062  0.0112  0.0335  0.0000  0.0670  0.0893 </r>
       </set>
      </set>
      <set comment="kpoint 111">
       <set comment="band 1">
        <r>  0.0317  0.0118  0.0000  0.0236  0.0605  0.4574  0.0227  0.2287  0.0076 </r>
       </set>
       <set comment="band 2">
        <r>  0.0000  0.0148  0.0221  0.0074  0.0477  0.1432  0.0000  0.2864  0.3819 </r>
       </set>
       <set comment="band 3">
        <r>  0.0000  0.0467  0.0701  0.0234  0.0419  0.1256  0.0000  0.2511  0.3348 </r>
       </set>
       <set comment="band 4">
        <r>  0.0274  0.0033  0.0000  0.0066  0.5287  0.0742  0.1983  0.0371  0.0661 </r>
       </set>
       <set comment="band 5">
        <r>  0.0000  0.0000  0.0000  0.0000  0.2196  0.0000  0.7412  0.0000  0.0275 </r>
       </set>
       <set comment="band 6">
        <r>  0.0000  0.1879  0.2819  0.0940  0.0150  0.0450  0.0000  0.0900  0.1200 </r>
       </set>
       <set comment="band 7">
        <r>  0.6738  0.0040  0.0000  0.0080  0.0756  0.0134  0.0284  0.0067  0.0095 </r>
       </set>
       <set comment="band 8">
        <r>  0.0000  0.2050  0.3076  0.1025  0.0084  0.0253  0.0000  0.0507  0.0676 </r>
       </set>
       <set comment="band 9">
        <r>  0.0015  0.1254  0.0000  0.2507  0.0011  0.2566  0.0004  0.1283  0.0001 </r>
       </set>
       <set comment="band 10">
        <r>  0.0000  0.0021  0.0032  0.0011  0.0342  0.1026  0.0000  0.2051  0.2735 </r>
       </set>
       <set comment="band 11">
        <r>  0.1106  0.0793  0.0000  0.1585  0.0627  0.0666  0.0235  0.0334  0.0079 </r>
       </set>
       <set comment="band 12">
        <r>  0.0000  0.0031  0.0046  0.0015  0.0112  0.0335  0.0000  0.0670  0.0894 </r>
       </set>
      </set>
      <set comment="kpoint 112">
       <set comment="band 1">
        <r>  0.0317  0.0118  0.0177  0.0059  0.2141  0.3038  0.0803  0.1519  0.0268 </r>
       </set>
       <set comment="band 2">
        <r>  0.0000  0.0148  0.0000  0.0295  0.0477  0.1432  0.0000  0.2864  0.3819 </r>
       </set>
       <set comment="band 3">
        <r>  0.0000  0.0467  0.0701  0.0234  0.1674  0.0000  0.5651  0.0000  0.0209 </r>
       </set>
       <set comment="band 4">
        <r>  0.0274  0.0033  0.0049  0.0016  0.3593  0.2436  0.1347  0.1218  0.0449 </r>
       </set>
       <set comment="band 5">
        <r>  0.0000  0.0000  0.0000  0.0000  0.0549  0.1647  0.0000  0.3294  0.4392 </r>
       </set>
       <set comment="band 6">
        <r>  0.0000  0.1879  0.2819  0.0940  0.0600  0.0000  0.2025  0.0000  0.0075 </r>
       </set>
       <set comment="band 7">
        <r>  0.6738  0.0040  0.0060  0.0020  0.0014  0.0876  0.0005  0.0438  0.0002 </r>
       </set>
       <set comment="band 8">
        <r>  0.0000  0.2050  0.0000  0.4101  0.0084  0.0253  0.0000  0.0507  0.0676 </r>
       </set>
       <set comment="band 9">
        <r>  0.0015  0.1254  0.1880  0.0627  0.1784  0.0793  0.0669  0.0397  0.0223 </r>
       </set>
       <set comment="band 10">
        <r>  0.0000  0.0021  0.0000  0.0043  0.0342  0.1025  0.0000  0.2052  0.2736 </r>
       </set>
       <set comment="band 11">
        <r>  0.1106  0.0793  0.1189  0.0396  0.0097  0.1197  0.0036  0.0598  0.0012 </r>
       </set>
       <set comment="band 12">
        <r>  0.0000  0.0031  0.0046  0.0015  0.0447  0.0000  0.1508  0.0000  0.0056 </r>
       </set>
      </set>
     </set>
    </set>
   </array>
  </projected>
 </calculation>
 <structure name="finalpos" >
  <crystal>
   <varray name="basis" >
    <v>       2.49329800       0.00000500       1.43952100 </v>
    <v>       0.83110500       2.35070100       1.43952100 </v>
    <v>       0.00000700       0.00000500       2.87901900 </v>
   </varray>
   <i name="volume">     16.87387728 </i>
   <varray name="rec_basis" >
    <v>       0.40107591      -0.14180244      -0.00000073 </v>
    <v>      -0.00000043       0.42540562      -0.00000074 </v>
    <v>      -0.20053934      -0.14180272       0.34734127 </v>
   </varray>
  </crystal>
  <varray name="positions" >
   <v>       0.00000000       0.00000000       0.00000000 </v>
  </varray>
 </structure>
</modeling>
