       N       E                     dE             d eps       ncg     rms          rms(c)
DAV:   1     0.305347923178E+02    0.30535E+02   -0.43104E+03  6816   0.581E+02
DAV:   2    -0.532843181475E+01   -0.35863E+02   -0.34405E+02  7572   0.144E+02
DAV:   3    -0.576130263890E+01   -0.43287E+00   -0.43209E+00  7716   0.145E+01
DAV:   4    -0.576305141366E+01   -0.17488E-02   -0.17487E-02  7644   0.110E+00
DAV:   5    -0.576306522923E+01   -0.13816E-04   -0.13817E-04  7756   0.877E-02    0.126E+01
DAV:   6    -0.545408908360E+01    0.30898E+00   -0.61231E-01  6772   0.604E+00    0.678E+00
DAV:   7    -0.541358069284E+01    0.40508E-01   -0.14696E-01  7380   0.293E+00    0.241E+00
DAV:   8    -0.541058640721E+01    0.29943E-02   -0.65491E-03  6896   0.638E-01    0.626E-01
DAV:   9    -0.541033514100E+01    0.25127E-03   -0.16409E-04  7224   0.105E-01    0.721E-02
DAV:  10    -0.541033666436E+01   -0.15234E-05   -0.63077E-06  3468   0.203E-02
   1 F= -.54103367E+01 E0= -.54089277E+01  d E =-.281798E-02
