       N       E                     dE             d eps       ncg     rms          rms(c)
DAV:   1     0.393026053086E+02    0.39303E+02   -0.50406E+03  6416   0.721E+02
DAV:   2    -0.513925035190E+01   -0.44442E+02   -0.42611E+02  7492   0.165E+02
DAV:   3    -0.576162711618E+01   -0.62238E+00   -0.61618E+00  7736   0.182E+01
DAV:   4    -0.576405513764E+01   -0.24280E-02   -0.24279E-02  7576   0.134E+00
DAV:   5    -0.576407408453E+01   -0.18947E-04   -0.18948E-04  7832   0.107E-01    0.126E+01
DAV:   6    -0.545493151616E+01    0.30914E+00   -0.61259E-01  6784   0.606E+00    0.679E+00
DAV:   7    -0.541444860561E+01    0.40483E-01   -0.14746E-01  7444   0.294E+00    0.242E+00
DAV:   8    -0.541147145542E+01    0.29772E-02   -0.66441E-03  6900   0.653E-01    0.628E-01
DAV:   9    -0.541121812251E+01    0.25333E-03   -0.17129E-04  7180   0.107E-01    0.687E-02
DAV:  10    -0.541121986353E+01   -0.17410E-05   -0.63658E-06  3484   0.205E-02
   1 F= -.54112199E+01 E0= -.54098090E+01  d E =-.282179E-02
