       N       E                     dE             d eps       ncg     rms          rms(c)
DAV:   1     0.316602030034E+02    0.31660E+02   -0.44366E+03  2920   0.617E+02
DAV:   2    -0.501813181676E+01   -0.36678E+02   -0.34847E+02  3180   0.142E+02
DAV:   3    -0.549114790398E+01   -0.47302E+00   -0.46881E+00  3240   0.150E+01
DAV:   4    -0.549333382194E+01   -0.21859E-02   -0.21856E-02  3264   0.122E+00
DAV:   5    -0.549335578285E+01   -0.21961E-04   -0.21961E-04  3324   0.114E-01    0.599E+00
DAV:   6    -0.518159020196E+01    0.31177E+00   -0.10385E+00  2908   0.684E+00    0.345E+00
DAV:   7    -0.517324385582E+01    0.83463E-02   -0.31895E-02  3192   0.129E+00    0.199E+00
DAV:   8    -0.517279069497E+01    0.45316E-03   -0.19307E-03  2908   0.323E-01    0.221E-01
DAV:   9    -0.517271086262E+01    0.79832E-04   -0.23218E-04  2088   0.110E-01
   1 F= -.51727109E+01 E0= -.51709664E+01  d E =-.348883E-02
