 vasp.6.2.0 18Jan21 (build Feb  1 2022 01:28:57) complex                         
 executed on             LinuxPGI date 2022.05.18  19:37:19
 running on   16 total cores
 distrk:  each k-point on   16 cores,    1 groups
 distr:  one band on NCORE=   4 cores,    4 groups


--------------------------------------------------------------------------------------------------------


 INCAR:
   ALGO = 38
   EDIFF = 0.0001
   EDIFFG = -0.03
   ENCUT = 420
   GGA = RP
   IBRION = 2
   ISIF = 0
   ISMEAR = 0
   ISPIN = 1
   ISYM = 0
   LASPH = False
   LORBIT = 11
   LREAL = False
   LVTOT = False
   LWAVE = False
   NCORE = 4
   NELM = 60
   NELMIN = 4
   NSW = 0
   PREC = Normal
   SIGMA = 0.05
   SYMPREC = 1e-05

 POTCAR:    PAW_PBE Pt 04Feb2005                  
 POTCAR:    PAW_PBE Pt 04Feb2005                  
   SHA256 =  3ed90460adef76debcff1cfb73ee1349b515b1a3db03439735b44de3a8db7dc8 Pt/POTCAR             
   COPYR  = (c) Copyright 04Feb2005 Georg Kresse                                                    
   COPYR  = This file is part of the software VASP. Any use, copying, and all other rights are regul
   COPYR  = If you do not have a valid VASP license, you may not use, copy or distribute this file. 
   VRHFIN =Pt: s1d9                                                                                 
   LEXCH  = PE                                                                                      
   EATOM  =   729.1176 eV,   53.5886 Ry                                                             
                                                                                                    
   TITEL  = PAW_PBE Pt 04Feb2005                                                                    
   LULTRA =        F    use ultrasoft PP ?                                                          
   IUNSCR =        1    unscreen: 0-lin 1-nonlin 2-no                                               
   RPACOR =    2.330    partial core radius                                                         
   POMASS =  195.080; ZVAL   =   10.000    mass and valenz                                          
   RCORE  =    2.600    outmost cutoff radius                                                       
   RWIGS  =    2.750; RWIGS  =    1.455    wigner-seitz radius (au A)                               
   ENMAX  =  230.283; ENMIN  =  172.712 eV                                                          
   ICORE  =        3    local potential                                                             
   LCOR   =        T    correct aug charges                                                         
   LPAW   =        T    paw PP                                                                      
   EAUG   =  358.966                                                                                
   DEXC   =    0.000                                                                                
   RMAX   =    2.658    core radius for proj-oper                                                   
   RAUG   =    1.300    factor for augmentation sphere                                              
   RDEP   =    2.761    radius for radial grids                                                     
   RDEPT  =    2.203    core radius for aug-charge                                                  
                                                                                                    
   Atomic configuration                                                                             
   16 entries                                                                                       
     n  l   j            E        occ.                                                              
     1  0  0.50    -78401.1885   2.0000                                                             
     2  0  0.50    -13770.7750   2.0000                                                             
     2  1  1.50    -11931.0468   6.0000                                                             
     3  0  0.50     -3234.7234   2.0000                                                             
     3  1  1.50     -2699.2216   6.0000                                                             
     3  2  2.50     -2119.5714  10.0000                                                             
     4  0  0.50      -695.1528   2.0000                                                             
     4  1  1.50      -519.6034   6.0000                                                             
     4  2  2.50      -306.6786  10.0000                                                             
     4  3  3.50       -70.1041  14.0000                                                             
     5  0  0.50      -101.7747   2.0000                                                             
     5  1  1.50       -55.9873   6.0000                                                             
     5  2  2.50        -6.1423   9.0000                                                             
     6  0  0.50        -5.6573   1.0000                                                             
     6  1  1.50        -6.8029   0.0000                                                             
     5  3  2.50        -1.3606   0.0000                                                             
   Description                                                                                      
     l       E           TYP  RCUT    TYP  RCUT                                                     
     2     -6.1423404     23  2.500                                                                 
     2     -7.5029230     23  2.500                                                                 
     0     -5.6573207     23  2.500                                                                 
     0      0.7416693     23  2.500                                                                 
     1     -2.7211652     23  2.600                                                                 
     1     20.4087390     23  2.600                                                                 
     3     -1.3605826     23  2.500                                                                 
  local pseudopotential read in
  partial core-charges read in
  partial kinetic energy density read in
  atomic valenz-charges read in
  non local Contribution for L=            2  read in
    real space projection operators read in
  non local Contribution for L=            2  read in
    real space projection operators read in
  non local Contribution for L=            0  read in
    real space projection operators read in
  non local Contribution for L=            0  read in
    real space projection operators read in
  non local Contribution for L=            1  read in
    real space projection operators read in
  non local Contribution for L=            1  read in
    real space projection operators read in
    PAW grid and wavefunctions read in
 
   number of l-projection  operators is LMAX  =            6
   number of lm-projection operators is LMMAX =           18
 
 -----------------------------------------------------------------------------
|                                                                             |
|               ----> ADVICE to this user running VASP <----                  |
|                                                                             |
|     You enforced a specific xc type in the INCAR file but a different       |
|     type was found in the POTCAR file.                                      |
|     I HOPE YOU KNOW WHAT YOU ARE DOING!                                     |
|                                                                             |
 -----------------------------------------------------------------------------

  PAW_PBE Pt 04Feb2005                  :
 energy of atom  1       EATOM= -729.1176
 kinetic energy error for atom=    0.0052 (will be added to EATOM!!)
 
 
 POSCAR: Pt1
  positions in direct lattice
  velocities in cartesian coordinates
 exchange correlation table for  LEXCH =        9
   RHO(1)=    0.500       N(1)  =     2000
   RHO(2)=  100.500       N(2)  =     4000
 


--------------------------------------------------------------------------------------------------------


 ion  position               nearest neighbor table
   1  0.000  0.000  0.000-
 

IMPORTANT INFORMATION: All symmetrisations will be switched off!
NOSYMM: (Re-)initialisation of all symmetry stuff for point group C_1.


----------------------------------------------------------------------------------------

                                     Primitive cell                                     

  volume of cell :      19.3597

  direct lattice vectors                    reciprocal lattice vectors
     2.610171000  0.000005000  1.506998000     0.383117305 -0.135453104 -0.000000665
     0.870063000  2.460890000  1.506998000    -0.000000389  0.406357600 -0.000000674
     0.000007000  0.000005000  3.013973000    -0.191559920 -0.135453282  0.331788645

  length of vectors
     3.013973394  3.013972825  3.013973000     0.406357494  0.406357600  0.406357600

  position of ions in fractional coordinates (direct lattice)
     0.000000000  0.000000000  0.000000000

  ion indices of the primitive-cell ions
   primitive index   ion index
                 1           1

----------------------------------------------------------------------------------------

 
 -----------------------------------------------------------------------------
|                                                                             |
|           W    W    AA    RRRRR   N    N  II  N    N   GGGG   !!!           |
|           W    W   A  A   R    R  NN   N  II  NN   N  G    G  !!!           |
|           W    W  A    A  R    R  N N  N  II  N N  N  G       !!!           |
|           W WW W  AAAAAA  RRRRR   N  N N  II  N  N N  G  GGG   !            |
|           WW  WW  A    A  R   R   N   NN  II  N   NN  G    G                |
|           W    W  A    A  R    R  N    N  II  N    N   GGGG   !!!           |
|                                                                             |
|     The requested file  could not be found or opened for reading            |
|     k-point information. Automatic k-point generation is used as a          |
|     fallback, which may lead to unwanted results.                           |
|                                                                             |
 -----------------------------------------------------------------------------

 

Automatic generation of k-mesh.
 Grid dimensions derived from KSPACING:
 generate k-points for:    6    6    6

 Generating k-lattice:

  Cartesian coordinates                     Fractional coordinates (reciprocal lattice)
     0.063852884 -0.022575517 -0.000000111     0.166666667 -0.000000000  0.000000000
    -0.000000065  0.067726267 -0.000000112     0.000000000  0.166666667  0.000000000
    -0.031926653 -0.022575547  0.055298108     0.000000000  0.000000000  0.166666667

  Length of vectors
     0.067726249  0.067726267  0.067726267

  Shift w.r.t. Gamma in fractional coordinates (k-lattice)
     0.000000000  0.000000000  0.000000000

 
 Subroutine IBZKPT returns following result:
 ===========================================
 
 Found    112 irreducible k-points:
 
 Following reciprocal coordinates:
            Coordinates               Weight
  0.000000  0.000000  0.000000      1.000000
  0.166667  0.000000  0.000000      2.000000
  0.000000  0.166667  0.000000      2.000000
  0.000000  0.000000  0.166667      2.000000
  0.166667  0.166667  0.166667      2.000000
  0.333333  0.000000  0.000000      2.000000
  0.000000  0.333333  0.000000      2.000000
  0.000000  0.000000  0.333333      2.000000
  0.333333  0.333333  0.333333      2.000000
  0.500000  0.000000  0.000000      1.000000
  0.000000  0.500000  0.000000      1.000000
  0.000000  0.000000  0.500000      1.000000
  0.500000  0.500000  0.500000      1.000000
  0.166667  0.166667  0.000000      2.000000
  0.000000  0.166667  0.166667      2.000000
  0.166667  0.000000  0.166667      2.000000
  0.333333  0.166667  0.000000      2.000000
  0.000000  0.333333  0.166667      2.000000
  0.166667  0.000000  0.333333      2.000000
  0.166667  0.166667 -0.166667      2.000000
  0.333333  0.166667  0.333333      2.000000
  0.166667  0.333333  0.000000      2.000000
  0.166667 -0.166667 -0.166667      2.000000
  0.333333  0.333333  0.166667      2.000000
  0.000000  0.166667  0.333333      2.000000
 -0.166667  0.166667 -0.166667      2.000000
  0.166667  0.333333  0.333333      2.000000
  0.333333  0.000000  0.166667      2.000000
  0.500000  0.166667  0.000000      2.000000
  0.000000  0.500000  0.166667      2.000000
  0.166667  0.000000  0.500000      2.000000
  0.166667  0.166667 -0.333333      2.000000
  0.500000  0.333333  0.500000      2.000000
  0.166667  0.500000  0.000000      2.000000
  0.333333 -0.166667 -0.166667      2.000000
  0.500000  0.500000  0.333333      2.000000
  0.000000  0.166667  0.500000      2.000000
 -0.166667  0.333333 -0.166667      2.000000
  0.333333  0.500000  0.500000      2.000000
  0.500000  0.000000  0.166667      2.000000
 -0.333333  0.166667  0.000000      2.000000
  0.000000 -0.333333  0.166667      2.000000
  0.166667  0.000000 -0.333333      2.000000
  0.166667  0.166667  0.500000      2.000000
 -0.333333  0.500000 -0.333333      2.000000
  0.166667 -0.333333  0.000000      2.000000
  0.500000 -0.166667 -0.166667      2.000000
 -0.333333 -0.333333  0.500000      2.000000
  0.000000  0.166667 -0.333333      2.000000
 -0.166667  0.500000 -0.166667      2.000000
  0.500000 -0.333333 -0.333333      2.000000
 -0.333333  0.000000  0.166667      2.000000
 -0.166667  0.166667  0.000000      2.000000
  0.000000 -0.166667  0.166667      2.000000
  0.166667  0.000000 -0.166667      2.000000
  0.166667  0.166667  0.333333      2.000000
 -0.166667 -0.333333 -0.166667      2.000000
 -0.333333 -0.166667 -0.166667      2.000000
  0.333333  0.333333  0.000000      2.000000
  0.000000  0.333333  0.333333      2.000000
  0.333333  0.000000  0.333333      2.000000
  0.500000  0.333333  0.000000      2.000000
  0.000000  0.500000  0.333333      2.000000
  0.333333  0.000000  0.500000      2.000000
  0.333333  0.333333 -0.166667      2.000000
  0.500000  0.166667  0.500000      2.000000
  0.333333  0.500000  0.000000      2.000000
  0.166667 -0.333333 -0.333333      2.000000
  0.500000  0.500000  0.166667      2.000000
  0.000000  0.333333  0.500000      2.000000
 -0.333333  0.166667 -0.333333      2.000000
  0.166667  0.500000  0.500000      2.000000
  0.500000  0.000000  0.333333      2.000000
 -0.333333  0.333333  0.000000      2.000000
  0.000000 -0.333333  0.333333      2.000000
  0.333333  0.000000 -0.333333      2.000000
  0.333333  0.333333 -0.333333      2.000000
 -0.333333  0.333333 -0.333333      2.000000
  0.333333 -0.333333 -0.333333      2.000000
  0.500000  0.500000  0.000000      1.000000
  0.000000  0.500000  0.500000      1.000000
  0.500000  0.000000  0.500000      1.000000
  0.500000  0.333333  0.166667      2.000000
  0.166667  0.500000  0.333333      2.000000
  0.333333  0.166667  0.500000      2.000000
  0.333333  0.166667 -0.166667      2.000000
  0.500000  0.166667  0.333333      2.000000
  0.166667 -0.333333 -0.166667      2.000000
  0.166667  0.333333 -0.166667      2.000000
  0.166667 -0.166667 -0.333333      2.000000
  0.333333  0.500000  0.166667      2.000000
 -0.166667  0.166667 -0.333333      2.000000
 -0.333333  0.166667 -0.166667      2.000000
  0.166667  0.333333  0.500000      2.000000
 -0.333333  0.333333  0.166667      2.000000
  0.166667 -0.333333  0.333333      2.000000
  0.333333  0.166667 -0.333333      2.000000
 -0.333333  0.333333  0.500000      2.000000
  0.166667  0.500000 -0.166667      2.000000
  0.333333 -0.166667 -0.333333      2.000000
  0.500000 -0.333333  0.333333      2.000000
 -0.166667  0.166667  0.500000      2.000000
 -0.333333  0.333333 -0.166667      2.000000
  0.333333  0.500000 -0.333333      2.000000
  0.500000 -0.166667  0.166667      2.000000
 -0.166667 -0.333333  0.333333      2.000000
 -0.333333  0.500000  0.166667      2.000000
  0.166667 -0.333333  0.500000      2.000000
  0.500000  0.166667 -0.333333      2.000000
  0.500000  0.333333 -0.166667      2.000000
 -0.333333  0.166667  0.500000      2.000000
  0.166667  0.500000 -0.333333      2.000000
 
 Following cartesian coordinates:
            Coordinates               Weight
  0.000000  0.000000  0.000000      1.000000
  0.063853 -0.022576 -0.000000      2.000000
 -0.000000  0.067726 -0.000000      2.000000
 -0.031927 -0.022576  0.055298      2.000000
  0.031926  0.022575  0.055298      2.000000
  0.127706 -0.045151 -0.000000      2.000000
 -0.000000  0.135453 -0.000000      2.000000
 -0.063853 -0.045151  0.110596      2.000000
  0.063852  0.045150  0.110596      2.000000
  0.191559 -0.067727 -0.000000      1.000000
 -0.000000  0.203179 -0.000000      1.000000
 -0.095780 -0.067727  0.165894      1.000000
  0.095778  0.067726  0.165894      1.000000
  0.063853  0.045151 -0.000000      2.000000
 -0.031927  0.045151  0.055298      2.000000
  0.031926 -0.045151  0.055298      2.000000
  0.127706  0.022575 -0.000000      2.000000
 -0.031927  0.112877  0.055298      2.000000
 -0.000000 -0.067727  0.110596      2.000000
  0.095779  0.067726 -0.055298      2.000000
  0.063852 -0.022576  0.110596      2.000000
  0.063853  0.112877 -0.000000      2.000000
  0.095780 -0.067726 -0.055298      2.000000
  0.095779  0.067726  0.055298      2.000000
 -0.063853  0.022575  0.110596      2.000000
 -0.031926  0.112877 -0.055298      2.000000
 -0.000001  0.067726  0.110596      2.000000
  0.095779 -0.067727  0.055298      2.000000
  0.191559 -0.000000 -0.000000      2.000000
 -0.031927  0.180603  0.055298      2.000000
 -0.031927 -0.090302  0.165894      2.000000
  0.127706  0.090302 -0.110596      2.000000
  0.095779 -0.000001  0.165894      2.000000
  0.063853  0.180603 -0.000000      2.000000
  0.159632 -0.090302 -0.055298      2.000000
  0.127705  0.090301  0.110596      2.000000
 -0.095780 -0.000000  0.165894      2.000000
 -0.031926  0.180604 -0.055298      2.000000
  0.031926  0.090301  0.165894      2.000000
  0.159632 -0.090302  0.055298      2.000000
 -0.127706  0.112877  0.000000      2.000000
 -0.031927 -0.158028  0.055298      2.000000
  0.127706  0.022576 -0.110596      2.000000
 -0.031927 -0.022576  0.165894      2.000000
 -0.063853  0.293481 -0.110596      2.000000
  0.063853 -0.158028  0.000000      2.000000
  0.223485 -0.112877 -0.055298      2.000000
 -0.223486 -0.158028  0.165895      2.000000
  0.063853  0.112877 -0.110596      2.000000
 -0.031926  0.248330 -0.055298      2.000000
  0.255412 -0.158028 -0.110596      2.000000
 -0.159632  0.022575  0.055298      2.000000
 -0.063853  0.090302 -0.000000      2.000000
 -0.031927 -0.090302  0.055298      2.000000
  0.095780  0.000000 -0.055298      2.000000
 -0.000000 -0.000000  0.110596      2.000000
 -0.031926 -0.090301 -0.055298      2.000000
 -0.095779  0.000000 -0.055298      2.000000
  0.127706  0.090301 -0.000000      2.000000
 -0.063853  0.090301  0.110596      2.000000
  0.063852 -0.090302  0.110596      2.000000
  0.191559  0.067726 -0.000001      2.000000
 -0.063854  0.158028  0.110596      2.000000
  0.031926 -0.112878  0.165894      2.000000
  0.159632  0.112877 -0.055299      2.000000
  0.095779 -0.067727  0.165894      2.000000
  0.127706  0.158028 -0.000001      2.000000
  0.127706 -0.112877 -0.110596      2.000000
  0.159632  0.112877  0.055297      2.000000
 -0.095780  0.067726  0.165894      2.000000
 -0.063853  0.158028 -0.110596      2.000000
 -0.031927  0.112877  0.165894      2.000000
  0.127705 -0.112878  0.110596      2.000000
 -0.127706  0.180604 -0.000000      2.000000
 -0.063853 -0.180604  0.110596      2.000000
  0.191559  0.000000 -0.110596      2.000000
  0.191559  0.135453 -0.110597      2.000000
 -0.063853  0.225755 -0.110596      2.000000
  0.191559 -0.135452 -0.110596      2.000000
  0.191558  0.135452 -0.000001      1.000000
 -0.095780  0.135452  0.165894      1.000000
  0.095779 -0.135453  0.165894      1.000000
  0.159632  0.045150  0.055298      2.000000
 -0.000001  0.135452  0.110596      2.000000
  0.031926 -0.045151  0.165894      2.000000
  0.159632  0.045151 -0.055298      2.000000
  0.127705 -0.045151  0.110596      2.000000
  0.095780 -0.135453 -0.055298      2.000000
  0.095779  0.135453 -0.055298      2.000000
  0.127706 -0.045151 -0.110596      2.000000
  0.095779  0.135452  0.055298      2.000000
  0.000000  0.135453 -0.110596      2.000000
 -0.095779  0.135453 -0.055298      2.000000
 -0.031927  0.045150  0.165894      2.000000
 -0.159633  0.158028  0.055298      2.000000
 -0.000000 -0.203179  0.110596      2.000000
  0.191559  0.067726 -0.110597      2.000000
 -0.223486  0.112877  0.165894      2.000000
  0.095779  0.203179 -0.055299      2.000000
  0.191559 -0.067726 -0.110596      2.000000
  0.127705 -0.248330  0.110596      2.000000
 -0.159633  0.022575  0.165894      2.000000
 -0.095779  0.203179 -0.055298      2.000000
  0.191559  0.203179 -0.110597      2.000000
  0.159632 -0.158028  0.055298      2.000000
 -0.127706 -0.158028  0.110597      2.000000
 -0.159633  0.225754  0.055298      2.000000
 -0.031927 -0.225755  0.165894      2.000000
  0.255412  0.045151 -0.110597      2.000000
  0.223485  0.090302 -0.055299      2.000000
 -0.223486  0.045151  0.165894      2.000000
  0.127706  0.225754 -0.110597      2.000000
 


--------------------------------------------------------------------------------------------------------




 Dimension of arrays:
   k-points           NKPTS =    112   k-points in BZ     NKDIM =    112   number of bands    NBANDS=     12
   number of dos      NEDOS =    301   number of ions     NIONS =      1
   non local maximal  LDIM  =      6   non local SUM 2l+1 LMDIM =     18
   total plane-waves  NPLWV =   4096
   max r-space proj   IRMAX =      1   max aug-charges    IRDMAX=  13012
   dimension x,y,z NGX =    16 NGY =   16 NGZ =   16
   dimension x,y,z NGXF=    32 NGYF=   32 NGZF=   32
   support grid    NGXF=    32 NGYF=   32 NGZF=   32
   ions per type =               1
   NGX,Y,Z   is equivalent  to a cutoff of   8.83,  8.83,  8.83 a.u.
   NGXF,Y,Z  is equivalent  to a cutoff of  17.65, 17.65, 17.65 a.u.

 SYSTEM =  unknown system                          
 POSCAR =  Pt1                                     

 Startparameter for this run:
   NWRITE =      2    write-flag & timer
   PREC   = normal    normal or accurate (medium, high low for compatibility)
   ISTART =      0    job   : 0-new  1-cont  2-samecut
   ICHARG =      2    charge: 1-file 2-atom 10-const
   ISPIN  =      1    spin polarized calculation?
   LNONCOLLINEAR =      F non collinear calculations
   LSORBIT =      F    spin-orbit coupling
   INIWAV =      1    electr: 0-lowe 1-rand  2-diag
   LASPH  =      F    aspherical Exc in radial PAW
   METAGGA=      F    non-selfconsistent MetaGGA calc.

 Electronic Relaxation 1
   ENCUT  =  420.0 eV  30.87 Ry    5.56 a.u.   5.04  5.04  5.04*2*pi/ulx,y,z
   ENINI  =  420.0     initial cutoff
   ENAUG  =  359.0 eV  augmentation charge cutoff
   NELM   =     60;   NELMIN=  4; NELMDL= -5     # of ELM steps 
   EDIFF  = 0.1E-03   stopping-criterion for ELM
   LREAL  =      F    real-space projection
   NLSPLINE    = F    spline interpolate recip. space projectors
   LCOMPAT=      F    compatible to vasp.4.4
   GGA_COMPAT  = T    GGA compatible to vasp.4.4-vasp.4.6
   LMAXPAW     = -100 max onsite density
   LMAXMIX     =    2 max onsite mixed and CHGCAR
   VOSKOWN=      0    Vosko Wilk Nusair interpolation
   ROPT   =    0.00000
 Ionic relaxation
   EDIFFG = -.3E-01   stopping-criterion for IOM
   NSW    =      0    number of steps for IOM
   NBLOCK =      1;   KBLOCK =      1    inner block; outer block 
   IBRION =     -1    ionic relax: 0-MD 1-quasi-New 2-CG
   NFREE  =      1    steps in history (QN), initial steepest desc. (CG)
   ISIF   =      0    stress and relaxation
   IWAVPR =     10    prediction:  0-non 1-charg 2-wave 3-comb
   ISYM   =      0    0-nonsym 1-usesym 2-fastsym
   LCORR  =      T    Harris-Foulkes like correction to forces

   POTIM  = 0.5000    time-step for ionic-motion
   TEIN   =    0.0    initial temperature
   TEBEG  =    0.0;   TEEND  =   0.0 temperature during run
   SMASS  =  -3.00    Nose mass-parameter (am)
   estimated Nose-frequenzy (Omega)   =  0.10E-29 period in steps = 0.13E+47 mass=  -0.208E-27a.u.
   SCALEE = 1.0000    scale energy and forces
   NPACO  =    256;   APACO  = 16.0  distance and # of slots for P.C.
   PSTRESS=    0.0 pullay stress

  Mass of Ions in am
   POMASS = 195.08
  Ionic Valenz
   ZVAL   =  10.00
  Atomic Wigner-Seitz radii
   RWIGS  =  -1.00
  virtual crystal weights 
   VCA    =   1.00
   NELECT =      10.0000    total number of electrons
   NUPDOWN=      -1.0000    fix difference up-down

 DOS related values:
   EMIN   =  10.00;   EMAX   =-10.00  energy-range for DOS
   EFERMI =   0.00
   ISMEAR =     0;   SIGMA  =   0.05  broadening in eV -4-tet -1-fermi 0-gaus

 Electronic relaxation 2 (details)
   IALGO  =     38    algorithm
   LDIAG  =      T    sub-space diagonalisation (order eigenvalues)
   LSUBROT=      F    optimize rotation matrix (better conditioning)
   TURBO    =      0    0=normal 1=particle mesh
   IRESTART =      0    0=no restart 2=restart with 2 vectors
   NREBOOT  =      0    no. of reboots
   NMIN     =      0    reboot dimension
   EREF     =   0.00    reference energy to select bands
   IMIX   =      4    mixing-type and parameters
     AMIX     =   0.40;   BMIX     =  1.00
     AMIX_MAG =   1.60;   BMIX_MAG =  1.00
     AMIN     =   0.10
     WC   =   100.;   INIMIX=   1;  MIXPRE=   1;  MAXMIX= -45

 Intra band minimization:
   WEIMIN = 0.0000     energy-eigenvalue tresh-hold
   EBREAK =  0.21E-05  absolut break condition
   DEPER  =   0.30     relativ break condition  

   TIME   =   0.40     timestep for ELM

  volume/ion in A,a.u.               =      19.36       130.65
  Fermi-wavevector in a.u.,A,eV,Ry     =   1.313535  2.482222 23.475148  1.725375
  Thomas-Fermi vector in A             =   2.443851
 
 Write flags
   LWAVE        =      F    write WAVECAR
   LDOWNSAMPLE  =      F    k-point downsampling of WAVECAR
   LCHARG       =      T    write CHGCAR
   LVTOT        =      F    write LOCPOT, total local potential
   LVHAR        =      F    write LOCPOT, Hartree potential only
   LELF         =      F    write electronic localiz. function (ELF)
   LORBIT       =     11    0 simple, 1 ext, 2 COOP (PROOUT), +10 PAW based schemes


 Dipole corrections
   LMONO  =      F    monopole corrections only (constant potential shift)
   LDIPOL =      F    correct potential (dipole corrections)
   IDIPOL =      0    1-x, 2-y, 3-z, 4-all directions 
   EPSILON=  1.0000000 bulk dielectric constant

 Exchange correlation treatment:
   GGA     =    RP    GGA type
   LEXCH   =     9    internal setting for exchange type
   VOSKOWN=      0    Vosko Wilk Nusair interpolation
   LHFCALC =     F    Hartree Fock is set to
   LHFONE  =     F    Hartree Fock one center treatment
   AEXX    =    0.0000 exact exchange contribution

 Linear response parameters
   LEPSILON=     F    determine dielectric tensor
   LRPA    =     F    only Hartree local field effects (RPA)
   LNABLA  =     F    use nabla operator in PAW spheres
   LVEL    =     F    velocity operator in full k-point grid
   LINTERFAST=   F  fast interpolation
   KINTER  =     0    interpolate to denser k-point grid
   CSHIFT  =0.1000    complex shift for real part using Kramers Kronig
   OMEGAMAX=  -1.0    maximum frequency
   DEG_THRESHOLD= 0.2000000E-02 threshold for treating states as degnerate
   RTIME   =   -0.100 relaxation time in fs
  (WPLASMAI=    0.000 imaginary part of plasma frequency in eV, 0.658/RTIME)
   DFIELD  = 0.0000000 0.0000000 0.0000000 field for delta impulse in time
 
 Orbital magnetization related:
   ORBITALMAG=     F  switch on orbital magnetization
   LCHIMAG   =     F  perturbation theory with respect to B field
   DQ        =  0.001000  dq finite difference perturbation B field
   LLRAUG    =     F  two centre corrections for induced B field



--------------------------------------------------------------------------------------------------------


 Static calculation
 charge density and potential will be updated during run
 non-spin polarized calculation
 Variant of blocked Davidson
 Davidson routine will perform the subspace rotation
 perform sub-space diagonalisation
    after iterative eigenvector-optimisation
 modified Broyden-mixing scheme, WC =      100.0
 initial mixing is a Kerker type mixing with AMIX =  0.4000 and BMIX =      1.0000
 Hartree-type preconditioning will be used
 using additional bands             7
 reciprocal scheme for non local part
 use partial core corrections
 calculate Harris-corrections to forces 
   (improved forces if not selfconsistent)
 use gradient corrections 
 use of overlap-Matrix (Vanderbilt PP)
 Gauss-broadening in eV      SIGMA  =   0.05


--------------------------------------------------------------------------------------------------------


  energy-cutoff  :      420.00
  volume of cell :       19.36
      direct lattice vectors                 reciprocal lattice vectors
     2.610171000  0.000005000  1.506998000     0.383117305 -0.135453104 -0.000000665
     0.870063000  2.460890000  1.506998000    -0.000000389  0.406357600 -0.000000674
     0.000007000  0.000005000  3.013973000    -0.191559920 -0.135453282  0.331788645

  length of vectors
     3.013973394  3.013972825  3.013973000     0.406357494  0.406357600  0.406357600


 
 k-points in units of 2pi/SCALE and weight: read from INCAR                         
   0.00000000  0.00000000  0.00000000       0.005
   0.06385288 -0.02257552 -0.00000011       0.009
  -0.00000006  0.06772627 -0.00000011       0.009
  -0.03192665 -0.02257555  0.05529811       0.009
   0.03192617  0.02257520  0.05529788       0.009
   0.12770577 -0.04515103 -0.00000022       0.009
  -0.00000013  0.13545253 -0.00000022       0.009
  -0.06385331 -0.04515109  0.11059622       0.009
   0.06385233  0.04515040  0.11059577       0.009
   0.19155865 -0.06772655 -0.00000033       0.005
  -0.00000019  0.20317880 -0.00000034       0.005
  -0.09577996 -0.06772664  0.16589432       0.005
   0.09577850  0.06772561  0.16589365       0.005
   0.06385282  0.04515075 -0.00000022       0.009
  -0.03192672  0.04515072  0.05529800       0.009
   0.03192623 -0.04515106  0.05529800       0.009
   0.12770570  0.02257523 -0.00000033       0.009
  -0.03192678  0.11287699  0.05529788       0.009
  -0.00000042 -0.06772661  0.11059610       0.009
   0.09577947  0.06772630 -0.05529833       0.009
   0.06385240 -0.02257586  0.11059588       0.009
   0.06385275  0.11287702 -0.00000034       0.009
   0.09577960 -0.06772624 -0.05529811       0.009
   0.09577899  0.06772595  0.05529766       0.009
  -0.06385337  0.02257517  0.11059610       0.009
  -0.03192630  0.11287733 -0.05529811       0.009
  -0.00000055  0.06772592  0.11059588       0.009
   0.09577912 -0.06772658  0.05529789       0.009
   0.19155859 -0.00000029 -0.00000044       0.009
  -0.03192685  0.18060325  0.05529777       0.009
  -0.03192708 -0.09030216  0.16589421       0.009
   0.12770613  0.09030184 -0.11059644       0.009
   0.09577856 -0.00000066  0.16589377       0.009
   0.06385269  0.18060328 -0.00000045       0.009
   0.15963249 -0.09030175 -0.05529822       0.009
   0.12770515  0.09030115  0.11059555       0.009
  -0.09578002 -0.00000037  0.16589421       0.009
  -0.03192636  0.18060360 -0.05529822       0.009
   0.03192561  0.09030112  0.16589376       0.009
   0.15963200 -0.09030210  0.05529777       0.009
  -0.12770583  0.11287730  0.00000011       0.009
  -0.03192652 -0.15802808  0.05529833       0.009
   0.12770619  0.02257558 -0.11059633       0.009
  -0.03192714 -0.02257589  0.16589410       0.009
  -0.06385266  0.29348093 -0.11059633       0.009
   0.06385301 -0.15802805  0.00000011       0.009
   0.22348537 -0.11287727 -0.05529833       0.009
  -0.22348560 -0.15802814  0.16589477       0.009
   0.06385324  0.11287736 -0.11059633       0.009
  -0.03192643  0.24832986 -0.05529833       0.009
   0.25541209 -0.15802799 -0.11059632       0.009
  -0.15963242  0.02257549  0.05529833       0.009
  -0.06385295  0.09030178 -0.00000000       0.009
  -0.03192659 -0.09030181  0.05529822       0.009
   0.09577954  0.00000003 -0.05529822       0.009
  -0.00000049 -0.00000034  0.11059599       0.009
  -0.03192610 -0.09030147 -0.05529777       0.009
  -0.09577905  0.00000031 -0.05529777       0.009
   0.12770564  0.09030150 -0.00000045       0.009
  -0.06385344  0.09030144  0.11059599       0.009
   0.06385246 -0.09030213  0.11059599       0.009
   0.19155852  0.06772598 -0.00000056       0.009
  -0.06385350  0.15802771  0.11059588       0.009
   0.03192581 -0.11287768  0.16589410       0.009
   0.15963229  0.11287705 -0.05529855       0.009
   0.09577863 -0.06772693  0.16589388       0.009
   0.12770557  0.15802777 -0.00000056       0.009
   0.12770632 -0.11287696 -0.11059610       0.009
   0.15963180  0.11287670  0.05529744       0.009
  -0.09578009  0.06772589  0.16589410       0.009
  -0.06385253  0.15802840 -0.11059611       0.009
  -0.03192727  0.11287664  0.16589387       0.009
   0.12770535 -0.11287765  0.11059588       0.009
  -0.12770590  0.18060357 -0.00000000       0.009
  -0.06385318 -0.18060363  0.11059644       0.009
   0.19155907  0.00000006 -0.11059644       0.009
   0.19155895  0.13545259 -0.11059666       0.009
  -0.06385259  0.22575466 -0.11059622       0.009
   0.19155920 -0.13545247 -0.11059621       0.009
   0.19155846  0.13545225 -0.00000067       0.005
  -0.09578015  0.13545216  0.16589399       0.005
   0.09577869 -0.13545319  0.16589399       0.005
   0.15963187  0.04515043  0.05529755       0.009
  -0.00000062  0.13545219  0.11059577       0.009
   0.03192574 -0.04515141  0.16589399       0.009
   0.15963236  0.04515078 -0.05529844       0.009
   0.12770528 -0.04515138  0.11059577       0.009
   0.09577967 -0.13545250 -0.05529799       0.009
   0.09577941  0.13545256 -0.05529844       0.009
   0.12770626 -0.04515069 -0.11059621       0.009
   0.09577892  0.13545222  0.05529755       0.009
   0.00000036  0.13545288 -0.11059622       0.009
  -0.09577918  0.13545285 -0.05529800       0.009
  -0.03192721  0.04515038  0.16589399       0.009
  -0.15963255  0.15802802  0.05529810       0.009
  -0.00000029 -0.20317914  0.11059633       0.009
   0.19155901  0.06772633 -0.11059655       0.009
  -0.22348586  0.11287693  0.16589432       0.009
   0.09577934  0.20317883 -0.05529856       0.009
   0.19155914 -0.06772621 -0.11059632       0.009
   0.12770548 -0.24833018  0.11059611       0.009
  -0.15963291  0.02257514  0.16589432       0.009
  -0.09577924  0.20317912 -0.05529811       0.009
   0.19155888  0.20317886 -0.11059677       0.009
   0.15963206 -0.15802837  0.05529789       0.009
  -0.12770606 -0.15802811  0.11059655       0.009
  -0.15963262  0.22575429  0.05529799       0.009
  -0.03192695 -0.22575469  0.16589444       0.009
   0.25541189  0.04515081 -0.11059666       0.009
   0.22348518  0.09030153 -0.05529866       0.009
  -0.22348579  0.04515066  0.16589443       0.009
   0.12770600  0.22575438 -0.11059666       0.009
 
 k-points in reciprocal lattice and weights: read from INCAR                         
   0.00000000  0.00000000  0.00000000       0.005
   0.16666667  0.00000000  0.00000000       0.009
   0.00000000  0.16666667  0.00000000       0.009
   0.00000000  0.00000000  0.16666667       0.009
   0.16666667  0.16666667  0.16666667       0.009
   0.33333333  0.00000000  0.00000000       0.009
   0.00000000  0.33333333  0.00000000       0.009
   0.00000000  0.00000000  0.33333333       0.009
   0.33333333  0.33333333  0.33333333       0.009
   0.50000000  0.00000000  0.00000000       0.005
   0.00000000  0.50000000  0.00000000       0.005
   0.00000000  0.00000000  0.50000000       0.005
   0.50000000  0.50000000  0.50000000       0.005
   0.16666667  0.16666667  0.00000000       0.009
   0.00000000  0.16666667  0.16666667       0.009
   0.16666667  0.00000000  0.16666667       0.009
   0.33333333  0.16666667  0.00000000       0.009
   0.00000000  0.33333333  0.16666667       0.009
   0.16666667  0.00000000  0.33333333       0.009
   0.16666667  0.16666667 -0.16666667       0.009
   0.33333333  0.16666667  0.33333333       0.009
   0.16666667  0.33333333  0.00000000       0.009
   0.16666667 -0.16666667 -0.16666667       0.009
   0.33333333  0.33333333  0.16666667       0.009
   0.00000000  0.16666667  0.33333333       0.009
  -0.16666667  0.16666667 -0.16666667       0.009
   0.16666667  0.33333333  0.33333333       0.009
   0.33333333  0.00000000  0.16666667       0.009
   0.50000000  0.16666667  0.00000000       0.009
   0.00000000  0.50000000  0.16666667       0.009
   0.16666667  0.00000000  0.50000000       0.009
   0.16666667  0.16666667 -0.33333333       0.009
   0.50000000  0.33333333  0.50000000       0.009
   0.16666667  0.50000000  0.00000000       0.009
   0.33333333 -0.16666667 -0.16666667       0.009
   0.50000000  0.50000000  0.33333333       0.009
   0.00000000  0.16666667  0.50000000       0.009
  -0.16666667  0.33333333 -0.16666667       0.009
   0.33333333  0.50000000  0.50000000       0.009
   0.50000000  0.00000000  0.16666667       0.009
  -0.33333333  0.16666667  0.00000000       0.009
   0.00000000 -0.33333333  0.16666667       0.009
   0.16666667  0.00000000 -0.33333333       0.009
   0.16666667  0.16666667  0.50000000       0.009
  -0.33333333  0.50000000 -0.33333333       0.009
   0.16666667 -0.33333333  0.00000000       0.009
   0.50000000 -0.16666667 -0.16666667       0.009
  -0.33333333 -0.33333333  0.50000000       0.009
   0.00000000  0.16666667 -0.33333333       0.009
  -0.16666667  0.50000000 -0.16666667       0.009
   0.50000000 -0.33333333 -0.33333333       0.009
  -0.33333333  0.00000000  0.16666667       0.009
  -0.16666667  0.16666667  0.00000000       0.009
   0.00000000 -0.16666667  0.16666667       0.009
   0.16666667  0.00000000 -0.16666667       0.009
   0.16666667  0.16666667  0.33333333       0.009
  -0.16666667 -0.33333333 -0.16666667       0.009
  -0.33333333 -0.16666667 -0.16666667       0.009
   0.33333333  0.33333333  0.00000000       0.009
   0.00000000  0.33333333  0.33333333       0.009
   0.33333333  0.00000000  0.33333333       0.009
   0.50000000  0.33333333  0.00000000       0.009
   0.00000000  0.50000000  0.33333333       0.009
   0.33333333  0.00000000  0.50000000       0.009
   0.33333333  0.33333333 -0.16666667       0.009
   0.50000000  0.16666667  0.50000000       0.009
   0.33333333  0.50000000  0.00000000       0.009
   0.16666667 -0.33333333 -0.33333333       0.009
   0.50000000  0.50000000  0.16666667       0.009
   0.00000000  0.33333333  0.50000000       0.009
  -0.33333333  0.16666667 -0.33333333       0.009
   0.16666667  0.50000000  0.50000000       0.009
   0.50000000  0.00000000  0.33333333       0.009
  -0.33333333  0.33333333  0.00000000       0.009
   0.00000000 -0.33333333  0.33333333       0.009
   0.33333333  0.00000000 -0.33333333       0.009
   0.33333333  0.33333333 -0.33333333       0.009
  -0.33333333  0.33333333 -0.33333333       0.009
   0.33333333 -0.33333333 -0.33333333       0.009
   0.50000000  0.50000000  0.00000000       0.005
   0.00000000  0.50000000  0.50000000       0.005
   0.50000000  0.00000000  0.50000000       0.005
   0.50000000  0.33333333  0.16666667       0.009
   0.16666667  0.50000000  0.33333333       0.009
   0.33333333  0.16666667  0.50000000       0.009
   0.33333333  0.16666667 -0.16666667       0.009
   0.50000000  0.16666667  0.33333333       0.009
   0.16666667 -0.33333333 -0.16666667       0.009
   0.16666667  0.33333333 -0.16666667       0.009
   0.16666667 -0.16666667 -0.33333333       0.009
   0.33333333  0.50000000  0.16666667       0.009
  -0.16666667  0.16666667 -0.33333333       0.009
  -0.33333333  0.16666667 -0.16666667       0.009
   0.16666667  0.33333333  0.50000000       0.009
  -0.33333333  0.33333333  0.16666667       0.009
   0.16666667 -0.33333333  0.33333333       0.009
   0.33333333  0.16666667 -0.33333333       0.009
  -0.33333333  0.33333333  0.50000000       0.009
   0.16666667  0.50000000 -0.16666667       0.009
   0.33333333 -0.16666667 -0.33333333       0.009
   0.50000000 -0.33333333  0.33333333       0.009
  -0.16666667  0.16666667  0.50000000       0.009
  -0.33333333  0.33333333 -0.16666667       0.009
   0.33333333  0.50000000 -0.33333333       0.009
   0.50000000 -0.16666667  0.16666667       0.009
  -0.16666667 -0.33333333  0.33333333       0.009
  -0.33333333  0.50000000  0.16666667       0.009
   0.16666667 -0.33333333  0.50000000       0.009
   0.50000000  0.16666667 -0.33333333       0.009
   0.50000000  0.33333333 -0.16666667       0.009
  -0.33333333  0.16666667  0.50000000       0.009
   0.16666667  0.50000000 -0.33333333       0.009
 
 position of ions in fractional coordinates (direct lattice) 
   0.00000000  0.00000000  0.00000000
 
 position of ions in cartesian coordinates  (Angst):
   0.00000000  0.00000000  0.00000000
 


--------------------------------------------------------------------------------------------------------


 k-point   1 :   0.0000 0.0000 0.0000  plane waves:     339
 k-point   2 :   0.1667 0.0000 0.0000  plane waves:     362
 k-point   3 :   0.0000 0.1667 0.0000  plane waves:     362
 k-point   4 :   0.0000 0.0000 0.1667  plane waves:     362
 k-point   5 :   0.1667 0.1667 0.1667  plane waves:     362
 k-point   6 :   0.3333 0.0000 0.0000  plane waves:     371
 k-point   7 :   0.0000 0.3333 0.0000  plane waves:     371
 k-point   8 :   0.0000 0.0000 0.3333  plane waves:     371
 k-point   9 :   0.3333 0.3333 0.3333  plane waves:     371
 k-point  10 :   0.5000 0.0000 0.0000  plane waves:     368
 k-point  11 :   0.0000 0.5000 0.0000  plane waves:     368
 k-point  12 :   0.0000 0.0000 0.5000  plane waves:     368
 k-point  13 :   0.5000 0.5000 0.5000  plane waves:     368
 k-point  14 :   0.1667 0.1667 0.0000  plane waves:     367
 k-point  15 :   0.0000 0.1667 0.1667  plane waves:     367
 k-point  16 :   0.1667 0.0000 0.1667  plane waves:     367
 k-point  17 :   0.3333 0.1667 0.0000  plane waves:     375
 k-point  18 :   0.0000 0.3333 0.1667  plane waves:     375
 k-point  19 :   0.1667 0.0000 0.3333  plane waves:     375
 k-point  20 :   0.1667 0.1667-0.1667  plane waves:     375
 k-point  21 :   0.3333 0.1667 0.3333  plane waves:     375
 k-point  22 :   0.1667 0.3333 0.0000  plane waves:     375
 k-point  23 :   0.1667-0.1667-0.1667  plane waves:     375
 k-point  24 :   0.3333 0.3333 0.1667  plane waves:     375
 k-point  25 :   0.0000 0.1667 0.3333  plane waves:     375
 k-point  26 :  -0.1667 0.1667-0.1667  plane waves:     375
 k-point  27 :   0.1667 0.3333 0.3333  plane waves:     375
 k-point  28 :   0.3333 0.0000 0.1667  plane waves:     375
 k-point  29 :   0.5000 0.1667 0.0000  plane waves:     381
 k-point  30 :   0.0000 0.5000 0.1667  plane waves:     381
 k-point  31 :   0.1667 0.0000 0.5000  plane waves:     381
 k-point  32 :   0.1667 0.1667-0.3333  plane waves:     381
 k-point  33 :   0.5000 0.3333 0.5000  plane waves:     381
 k-point  34 :   0.1667 0.5000 0.0000  plane waves:     381
 k-point  35 :   0.3333-0.1667-0.1667  plane waves:     381
 k-point  36 :   0.5000 0.5000 0.3333  plane waves:     381
 k-point  37 :   0.0000 0.1667 0.5000  plane waves:     381
 k-point  38 :  -0.1667 0.3333-0.1667  plane waves:     381
 k-point  39 :   0.3333 0.5000 0.5000  plane waves:     381
 k-point  40 :   0.5000 0.0000 0.1667  plane waves:     381
 k-point  41 :  -0.3333 0.1667 0.0000  plane waves:     383
 k-point  42 :   0.0000-0.3333 0.1667  plane waves:     383
 k-point  43 :   0.1667 0.0000-0.3333  plane waves:     383
 k-point  44 :   0.1667 0.1667 0.5000  plane waves:     383
 k-point  45 :  -0.3333 0.5000-0.3333  plane waves:     383
 k-point  46 :   0.1667-0.3333 0.0000  plane waves:     383
 k-point  47 :   0.5000-0.1667-0.1667  plane waves:     383
 k-point  48 :  -0.3333-0.3333 0.5000  plane waves:     383
 k-point  49 :   0.0000 0.1667-0.3333  plane waves:     383
 k-point  50 :  -0.1667 0.5000-0.1667  plane waves:     383
 k-point  51 :   0.5000-0.3333-0.3333  plane waves:     383
 k-point  52 :  -0.3333 0.0000 0.1667  plane waves:     383
 k-point  53 :  -0.1667 0.1667 0.0000  plane waves:     371
 k-point  54 :   0.0000-0.1667 0.1667  plane waves:     371
 k-point  55 :   0.1667 0.0000-0.1667  plane waves:     371
 k-point  56 :   0.1667 0.1667 0.3333  plane waves:     371
 k-point  57 :  -0.1667-0.3333-0.1667  plane waves:     371
 k-point  58 :  -0.3333-0.1667-0.1667  plane waves:     371
 k-point  59 :   0.3333 0.3333 0.0000  plane waves:     379
 k-point  60 :   0.0000 0.3333 0.3333  plane waves:     379
 k-point  61 :   0.3333 0.0000 0.3333  plane waves:     379
 k-point  62 :   0.5000 0.3333 0.0000  plane waves:     376
 k-point  63 :   0.0000 0.5000 0.3333  plane waves:     376
 k-point  64 :   0.3333 0.0000 0.5000  plane waves:     376
 k-point  65 :   0.3333 0.3333-0.1667  plane waves:     376
 k-point  66 :   0.5000 0.1667 0.5000  plane waves:     376
 k-point  67 :   0.3333 0.5000 0.0000  plane waves:     376
 k-point  68 :   0.1667-0.3333-0.3333  plane waves:     376
 k-point  69 :   0.5000 0.5000 0.1667  plane waves:     376
 k-point  70 :   0.0000 0.3333 0.5000  plane waves:     376
 k-point  71 :  -0.3333 0.1667-0.3333  plane waves:     376
 k-point  72 :   0.1667 0.5000 0.5000  plane waves:     376
 k-point  73 :   0.5000 0.0000 0.3333  plane waves:     376
 k-point  74 :  -0.3333 0.3333 0.0000  plane waves:     383
 k-point  75 :   0.0000-0.3333 0.3333  plane waves:     383
 k-point  76 :   0.3333 0.0000-0.3333  plane waves:     383
 k-point  77 :   0.3333 0.3333-0.3333  plane waves:     383
 k-point  78 :  -0.3333 0.3333-0.3333  plane waves:     383
 k-point  79 :   0.3333-0.3333-0.3333  plane waves:     383
 k-point  80 :   0.5000 0.5000 0.0000  plane waves:     388
 k-point  81 :   0.0000 0.5000 0.5000  plane waves:     388
 k-point  82 :   0.5000 0.0000 0.5000  plane waves:     388
 k-point  83 :   0.5000 0.3333 0.1667  plane waves:     376
 k-point  84 :   0.1667 0.5000 0.3333  plane waves:     376
 k-point  85 :   0.3333 0.1667 0.5000  plane waves:     376
 k-point  86 :   0.3333 0.1667-0.1667  plane waves:     376
 k-point  87 :   0.5000 0.1667 0.3333  plane waves:     376
 k-point  88 :   0.1667-0.3333-0.1667  plane waves:     376
 k-point  89 :   0.1667 0.3333-0.1667  plane waves:     376
 k-point  90 :   0.1667-0.1667-0.3333  plane waves:     376
 k-point  91 :   0.3333 0.5000 0.1667  plane waves:     376
 k-point  92 :  -0.1667 0.1667-0.3333  plane waves:     376
 k-point  93 :  -0.3333 0.1667-0.1667  plane waves:     376
 k-point  94 :   0.1667 0.3333 0.5000  plane waves:     376
 k-point  95 :  -0.3333 0.3333 0.1667  plane waves:     384
 k-point  96 :   0.1667-0.3333 0.3333  plane waves:     384
 k-point  97 :   0.3333 0.1667-0.3333  plane waves:     384
 k-point  98 :  -0.3333 0.3333 0.5000  plane waves:     384
 k-point  99 :   0.1667 0.5000-0.1667  plane waves:     384
 k-point 100 :   0.3333-0.1667-0.3333  plane waves:     384
 k-point 101 :   0.5000-0.3333 0.3333  plane waves:     384
 k-point 102 :  -0.1667 0.1667 0.5000  plane waves:     384
 k-point 103 :  -0.3333 0.3333-0.1667  plane waves:     384
 k-point 104 :   0.3333 0.5000-0.3333  plane waves:     384
 k-point 105 :   0.5000-0.1667 0.1667  plane waves:     384
 k-point 106 :  -0.1667-0.3333 0.3333  plane waves:     384
 k-point 107 :  -0.3333 0.5000 0.1667  plane waves:     382
 k-point 108 :   0.1667-0.3333 0.5000  plane waves:     382
 k-point 109 :   0.5000 0.1667-0.3333  plane waves:     382
 k-point 110 :   0.5000 0.3333-0.1667  plane waves:     382
 k-point 111 :  -0.3333 0.1667 0.5000  plane waves:     382
 k-point 112 :   0.1667 0.5000-0.3333  plane waves:     382

 maximum and minimum number of plane-waves per node :       107       72

 maximum number of plane-waves:       388
 maximum index in each direction: 
   IXMAX=    5   IYMAX=    5   IZMAX=    5
   IXMIN=   -5   IYMIN=   -5   IZMIN=   -5


 parallel 3D FFT for wavefunctions:
    minimum data exchange during FFTs selected (reduces bandwidth)
 parallel 3D FFT for charge:
    minimum data exchange during FFTs selected (reduces bandwidth)


 total amount of memory used by VASP MPI-rank0    32696. kBytes
=======================================================================

   base      :      30000. kBytes
   nonl-proj :       1743. kBytes
   fftplans  :        106. kBytes
   grid      :        144. kBytes
   one-center:         15. kBytes
   wavefun   :        688. kBytes
 
     INWAV:  cpu time    0.0000: real time    0.0000
 Broyden mixing: mesh for mixing (old mesh)
   NGX =  9   NGY =  9   NGZ =  9
  (NGX  = 32   NGY  = 32   NGZ  = 32)
  gives a total of    729 points

 initial charge density was supplied:
 charge density of overlapping atoms calculated
 number of electron      10.0000000 magnetization 
 keeping initial charge density in first step


--------------------------------------------------------------------------------------------------------


 Maximum index for augmentation-charges           595 (set IRDMAX)


--------------------------------------------------------------------------------------------------------


 First call to EWALD:  gamma=   0.660
 Maximum number of real-space cells 3x 3x 3
 Maximum number of reciprocal cells 3x 3x 3

    FEWALD:  cpu time    0.0009: real time    0.0009


--------------------------------------- Iteration      1(   1)  ---------------------------------------


    POTLOK:  cpu time    0.0043: real time    0.0043
    SETDIJ:  cpu time    0.0045: real time    0.0045
     EDDAV:  cpu time    0.4437: real time    0.4501
       DOS:  cpu time    0.0014: real time    0.0014
    --------------------------------------------
      LOOP:  cpu time    0.4539: real time    0.4604

 eigenvalue-minimisations  :  2920
 total energy-change (2. order) : 0.3166020E+02  (-0.4436551E+03)
 number of electron      10.0000000 magnetization 
 augmentation part       10.0000000 magnetization 

 Free energy of the ion-electron system (eV)
  ---------------------------------------------------
  alpha Z        PSCENC =        49.10102338
  Ewald energy   TEWEN  =      -774.46044163
  -Hartree energ DENC   =       -94.99536234
  -exchange      EXHF   =         0.00000000
  -V(xc)+E(xc)   XCENC  =         2.53411286
  PAW double counting   =       696.70595042     -667.45827301
  entropy T*S    EENTRO =        -0.00138140
  eigenvalues    EBANDS =        91.91536540
  atomic energy  EATOM  =       728.31920932
  Solvation  Ediel_sol  =         0.00000000
  ---------------------------------------------------
  free energy    TOTEN  =        31.66020300 eV

  energy without entropy =       31.66158440  energy(sigma->0) =       31.66089370


--------------------------------------------------------------------------------------------------------




--------------------------------------- Iteration      1(   2)  ---------------------------------------


     EDDAV:  cpu time    0.4961: real time    0.4969
       DOS:  cpu time    0.0015: real time    0.0015
    --------------------------------------------
      LOOP:  cpu time    0.4976: real time    0.4984

 eigenvalue-minimisations  :  3180
 total energy-change (2. order) :-0.3667833E+02  (-0.3484709E+02)
 number of electron      10.0000000 magnetization 
 augmentation part       10.0000000 magnetization 

 Free energy of the ion-electron system (eV)
  ---------------------------------------------------
  alpha Z        PSCENC =        49.10102338
  Ewald energy   TEWEN  =      -774.46044163
  -Hartree energ DENC   =       -94.99536234
  -exchange      EXHF   =         0.00000000
  -V(xc)+E(xc)   XCENC  =         2.53411286
  PAW double counting   =       696.70595042     -667.45827301
  entropy T*S    EENTRO =        -0.00233151
  eigenvalues    EBANDS =        55.23798070
  atomic energy  EATOM  =       728.31920932
  Solvation  Ediel_sol  =         0.00000000
  ---------------------------------------------------
  free energy    TOTEN  =        -5.01813182 eV

  energy without entropy =       -5.01580030  energy(sigma->0) =       -5.01696606


--------------------------------------------------------------------------------------------------------




--------------------------------------- Iteration      1(   3)  ---------------------------------------


     EDDAV:  cpu time    0.4672: real time    0.4680
       DOS:  cpu time    0.0016: real time    0.0015
    --------------------------------------------
      LOOP:  cpu time    0.4687: real time    0.4695

 eigenvalue-minimisations  :  3240
 total energy-change (2. order) :-0.4730161E+00  (-0.4688119E+00)
 number of electron      10.0000000 magnetization 
 augmentation part       10.0000000 magnetization 

 Free energy of the ion-electron system (eV)
  ---------------------------------------------------
  alpha Z        PSCENC =        49.10102338
  Ewald energy   TEWEN  =      -774.46044163
  -Hartree energ DENC   =       -94.99536234
  -exchange      EXHF   =         0.00000000
  -V(xc)+E(xc)   XCENC  =         2.53411286
  PAW double counting   =       696.70595042     -667.45827301
  entropy T*S    EENTRO =        -0.00247835
  eigenvalues    EBANDS =        54.76511145
  atomic energy  EATOM  =       728.31920932
  Solvation  Ediel_sol  =         0.00000000
  ---------------------------------------------------
  free energy    TOTEN  =        -5.49114790 eV

  energy without entropy =       -5.48866955  energy(sigma->0) =       -5.48990873


--------------------------------------------------------------------------------------------------------




--------------------------------------- Iteration      1(   4)  ---------------------------------------


     EDDAV:  cpu time    0.4628: real time    0.4661
       DOS:  cpu time    0.0015: real time    0.0016
    --------------------------------------------
      LOOP:  cpu time    0.4643: real time    0.4677

 eigenvalue-minimisations  :  3264
 total energy-change (2. order) :-0.2185918E-02  (-0.2185586E-02)
 number of electron      10.0000000 magnetization 
 augmentation part       10.0000000 magnetization 

 Free energy of the ion-electron system (eV)
  ---------------------------------------------------
  alpha Z        PSCENC =        49.10102338
  Ewald energy   TEWEN  =      -774.46044163
  -Hartree energ DENC   =       -94.99536234
  -exchange      EXHF   =         0.00000000
  -V(xc)+E(xc)   XCENC  =         2.53411286
  PAW double counting   =       696.70595042     -667.45827301
  entropy T*S    EENTRO =        -0.00248054
  eigenvalues    EBANDS =        54.76292772
  atomic energy  EATOM  =       728.31920932
  Solvation  Ediel_sol  =         0.00000000
  ---------------------------------------------------
  free energy    TOTEN  =        -5.49333382 eV

  energy without entropy =       -5.49085328  energy(sigma->0) =       -5.49209355


--------------------------------------------------------------------------------------------------------




--------------------------------------- Iteration      1(   5)  ---------------------------------------


     EDDAV:  cpu time    0.4726: real time    0.4734
       DOS:  cpu time    0.0015: real time    0.0015
    CHARGE:  cpu time    0.0077: real time    0.0077
    MIXING:  cpu time    0.0003: real time    0.0003
    --------------------------------------------
      LOOP:  cpu time    0.4821: real time    0.4830

 eigenvalue-minimisations  :  3324
 total energy-change (2. order) :-0.2196091E-04  (-0.2196087E-04)
 number of electron       9.9999995 magnetization 
 augmentation part        2.9591428 magnetization 

 Broyden mixing:
  rms(total) = 0.59930E+00    rms(broyden)= 0.59928E+00
  rms(prec ) = 0.14770E+01
  weight for this iteration     100.00

 Free energy of the ion-electron system (eV)
  ---------------------------------------------------
  alpha Z        PSCENC =        49.10102338
  Ewald energy   TEWEN  =      -774.46044163
  -Hartree energ DENC   =       -94.99536234
  -exchange      EXHF   =         0.00000000
  -V(xc)+E(xc)   XCENC  =         2.53411286
  PAW double counting   =       696.70595042     -667.45827301
  entropy T*S    EENTRO =        -0.00248059
  eigenvalues    EBANDS =        54.76290581
  atomic energy  EATOM  =       728.31920932
  Solvation  Ediel_sol  =         0.00000000
  ---------------------------------------------------
  free energy    TOTEN  =        -5.49335578 eV

  energy without entropy =       -5.49087519  energy(sigma->0) =       -5.49211549


--------------------------------------------------------------------------------------------------------




--------------------------------------- Iteration      1(   6)  ---------------------------------------


    POTLOK:  cpu time    0.0039: real time    0.0039
    SETDIJ:  cpu time    0.0042: real time    0.0042
     EDDAV:  cpu time    0.4286: real time    0.4346
       DOS:  cpu time    0.0016: real time    0.0016
    CHARGE:  cpu time    0.0074: real time    0.0074
    MIXING:  cpu time    0.0004: real time    0.0004
    --------------------------------------------
      LOOP:  cpu time    0.4461: real time    0.4521

 eigenvalue-minimisations  :  2908
 total energy-change (2. order) : 0.3117656E+00  (-0.1038478E+00)
 number of electron       9.9999994 magnetization 
 augmentation part        3.1257990 magnetization 

 Broyden mixing:
  rms(total) = 0.34460E+00    rms(broyden)= 0.34459E+00
  rms(prec ) = 0.42664E+00
  weight for this iteration     100.00

 eigenvalues of (default mixing * dielectric matrix)
  average eigenvalue GAMMA=   1.4535
  1.4535

 Free energy of the ion-electron system (eV)
  ---------------------------------------------------
  alpha Z        PSCENC =        49.10102338
  Ewald energy   TEWEN  =      -774.46044163
  -Hartree energ DENC   =       -87.31427425
  -exchange      EXHF   =         0.00000000
  -V(xc)+E(xc)   XCENC  =         2.26729052
  PAW double counting   =       725.85401676     -697.66979288
  entropy T*S    EENTRO =        -0.00351437
  eigenvalues    EBANDS =        48.72489295
  atomic energy  EATOM  =       728.31920932
  Solvation  Ediel_sol  =         0.00000000
  ---------------------------------------------------
  free energy    TOTEN  =        -5.18159020 eV

  energy without entropy =       -5.17807583  energy(sigma->0) =       -5.17983302


--------------------------------------------------------------------------------------------------------




--------------------------------------- Iteration      1(   7)  ---------------------------------------


    POTLOK:  cpu time    0.0039: real time    0.0039
    SETDIJ:  cpu time    0.0038: real time    0.0038
     EDDAV:  cpu time    0.4591: real time    0.4599
       DOS:  cpu time    0.0016: real time    0.0016
    CHARGE:  cpu time    0.0071: real time    0.0072
    MIXING:  cpu time    0.0004: real time    0.0004
    --------------------------------------------
      LOOP:  cpu time    0.4759: real time    0.4768

 eigenvalue-minimisations  :  3192
 total energy-change (2. order) : 0.8346346E-02  (-0.3189452E-02)
 number of electron       9.9999994 magnetization 
 augmentation part        3.1526486 magnetization 

 Broyden mixing:
  rms(total) = 0.19890E+00    rms(broyden)= 0.19890E+00
  rms(prec ) = 0.20997E+00
  weight for this iteration     100.00

 eigenvalues of (default mixing * dielectric matrix)
  average eigenvalue GAMMA=   1.9788
  1.1443  2.8133

 Free energy of the ion-electron system (eV)
  ---------------------------------------------------
  alpha Z        PSCENC =        49.10102338
  Ewald energy   TEWEN  =      -774.46044163
  -Hartree energ DENC   =       -85.69531592
  -exchange      EXHF   =         0.00000000
  -V(xc)+E(xc)   XCENC  =         2.20936421
  PAW double counting   =       754.53867470     -726.76816810
  entropy T*S    EENTRO =        -0.00350198
  eigenvalues    EBANDS =        47.58591217
  atomic energy  EATOM  =       728.31920932
  Solvation  Ediel_sol  =         0.00000000
  ---------------------------------------------------
  free energy    TOTEN  =        -5.17324386 eV

  energy without entropy =       -5.16974187  energy(sigma->0) =       -5.17149286


--------------------------------------------------------------------------------------------------------




--------------------------------------- Iteration      1(   8)  ---------------------------------------


    POTLOK:  cpu time    0.0038: real time    0.0038
    SETDIJ:  cpu time    0.0037: real time    0.0037
     EDDAV:  cpu time    0.4310: real time    0.4344
       DOS:  cpu time    0.0016: real time    0.0016
    CHARGE:  cpu time    0.0070: real time    0.0070
    MIXING:  cpu time    0.0003: real time    0.0003
    --------------------------------------------
      LOOP:  cpu time    0.4475: real time    0.4509

 eigenvalue-minimisations  :  2908
 total energy-change (2. order) : 0.4531608E-03  (-0.1930666E-03)
 number of electron       9.9999994 magnetization 
 augmentation part        3.1571307 magnetization 

 Broyden mixing:
  rms(total) = 0.22072E-01    rms(broyden)= 0.22070E-01
  rms(prec ) = 0.28633E-01
  weight for this iteration     100.00

 eigenvalues of (default mixing * dielectric matrix)
  average eigenvalue GAMMA=   1.5568
  2.5700  0.9095  1.1908

 Free energy of the ion-electron system (eV)
  ---------------------------------------------------
  alpha Z        PSCENC =        49.10102338
  Ewald energy   TEWEN  =      -774.46044163
  -Hartree energ DENC   =       -85.00877169
  -exchange      EXHF   =         0.00000000
  -V(xc)+E(xc)   XCENC  =         2.18112593
  PAW double counting   =       792.62898413     -765.24135728
  entropy T*S    EENTRO =        -0.00348847
  eigenvalues    EBANDS =        47.31092562
  atomic energy  EATOM  =       728.31920932
  Solvation  Ediel_sol  =         0.00000000
  ---------------------------------------------------
  free energy    TOTEN  =        -5.17279069 eV

  energy without entropy =       -5.16930222  energy(sigma->0) =       -5.17104646


--------------------------------------------------------------------------------------------------------




--------------------------------------- Iteration      1(   9)  ---------------------------------------


    POTLOK:  cpu time    0.0037: real time    0.0037
    SETDIJ:  cpu time    0.0037: real time    0.0037
     EDDAV:  cpu time    0.3561: real time    0.3603
       DOS:  cpu time    0.0016: real time    0.0017
    --------------------------------------------
      LOOP:  cpu time    0.3651: real time    0.3694

 eigenvalue-minimisations  :  2088
 total energy-change (2. order) : 0.7983235E-04  (-0.2321782E-04)
 number of electron       9.9999994 magnetization 
 augmentation part        3.1571307 magnetization 

 Free energy of the ion-electron system (eV)
  ---------------------------------------------------
  alpha Z        PSCENC =        49.10102338
  Ewald energy   TEWEN  =      -774.46044163
  -Hartree energ DENC   =       -85.16913572
  -exchange      EXHF   =         0.00000000
  -V(xc)+E(xc)   XCENC  =         2.18674453
  PAW double counting   =       788.86041579     -761.41339231
  entropy T*S    EENTRO =        -0.00348883
  eigenvalues    EBANDS =        47.40635461
  atomic energy  EATOM  =       728.31920932
  Solvation  Ediel_sol  =         0.00000000
  ---------------------------------------------------
  free energy    TOTEN  =        -5.17271086 eV

  energy without entropy =       -5.16922203  energy(sigma->0) =       -5.17096645


--------------------------------------------------------------------------------------------------------




 average (electrostatic) potential at core
  the test charge radii are     1.2059
  (the norm of the test charge is              1.0000)
       1 -66.2920
 
 
 
 E-fermi :   7.1614     XC(G=0): -11.9471     alpha+bet :-12.9422

 Fermi energy:         7.1613773972

 k-point     1 :       0.0000    0.0000    0.0000
  band No.  band energies     occupation 
      1      -0.4929      2.00000
      2       4.6550      2.00000
      3       4.6551      2.00000
      4       4.6551      2.00000
      5       6.0681      2.00000
      6       6.0681      2.00000
      7      22.1520      0.00000
      8      25.7617      0.00000
      9      25.7620      0.00000
     10      25.7620      0.00000
     11      30.2756      0.00000
     12      34.3718      0.00000

 k-point     2 :       0.1667    0.0000    0.0000
  band No.  band energies     occupation 
      1       0.3465      2.00000
      2       4.4365      2.00000
      3       4.8798      2.00000
      4       4.8799      2.00000
      5       6.0173      2.00000
      6       6.0173      2.00000
      7      21.6982      0.00000
      8      23.1585      0.00000
      9      26.6249      0.00000
     10      26.6251      0.00000
     11      29.1816      0.00000
     12      31.2109      0.00000

 k-point     3 :       0.0000    0.1667    0.0000
  band No.  band energies     occupation 
      1       0.3465      2.00000
      2       4.4365      2.00000
      3       4.8798      2.00000
      4       4.8799      2.00000
      5       6.0173      2.00000
      6       6.0173      2.00000
      7      21.6982      0.00000
      8      23.1585      0.00000
      9      26.6249      0.00000
     10      26.6251      0.00000
     11      29.1816      0.00000
     12      31.2108      0.00000

 k-point     4 :       0.0000    0.0000    0.1667
  band No.  band energies     occupation 
      1       0.3465      2.00000
      2       4.4365      2.00000
      3       4.8798      2.00000
      4       4.8799      2.00000
      5       6.0173      2.00000
      6       6.0173      2.00000
      7      21.6982      0.00000
      8      23.1585      0.00000
      9      26.6249      0.00000
     10      26.6251      0.00000
     11      29.1816      0.00000
     12      31.2107      0.00000

 k-point     5 :       0.1667    0.1667    0.1667
  band No.  band energies     occupation 
      1       0.3464      2.00000
      2       4.4365      2.00000
      3       4.8798      2.00000
      4       4.8798      2.00000
      5       6.0173      2.00000
      6       6.0173      2.00000
      7      21.6980      0.00000
      8      23.1585      0.00000
      9      26.6251      0.00000
     10      26.6251      0.00000
     11      29.1816      0.00000
     12      31.2108      0.00000

 k-point     6 :       0.3333    0.0000    0.0000
  band No.  band energies     occupation 
      1       1.8540      2.00000
      2       4.8031      2.00000
      3       4.8032      2.00000
      4       5.1166      2.00000
      5       6.6140      2.00000
      6       6.6141      2.00000
      7      15.7731      0.00000
      8      22.4684      0.00000
      9      25.8432      0.00000
     10      25.8433      0.00000
     11      29.9269      0.00000
     12      30.3375      0.00000

 k-point     7 :       0.0000    0.3333    0.0000
  band No.  band energies     occupation 
      1       1.8541      2.00000
      2       4.8031      2.00000
      3       4.8032      2.00000
      4       5.1166      2.00000
      5       6.6140      2.00000
      6       6.6141      2.00000
      7      15.7731      0.00000
      8      22.4683      0.00000
      9      25.8432      0.00000
     10      25.8433      0.00000
     11      29.9269      0.00000
     12      30.3375      0.00000

 k-point     8 :       0.0000    0.0000    0.3333
  band No.  band energies     occupation 
      1       1.8541      2.00000
      2       4.8031      2.00000
      3       4.8032      2.00000
      4       5.1166      2.00000
      5       6.6140      2.00000
      6       6.6141      2.00000
      7      15.7731      0.00000
      8      22.4683      0.00000
      9      25.8432      0.00000
     10      25.8433      0.00000
     11      29.9269      0.00000
     12      30.3375      0.00000

 k-point     9 :       0.3333    0.3333    0.3333
  band No.  band energies     occupation 
      1       1.8540      2.00000
      2       4.8031      2.00000
      3       4.8031      2.00000
      4       5.1165      2.00000
      5       6.6141      2.00000
      6       6.6141      2.00000
      7      15.7729      0.00000
      8      22.4684      0.00000
      9      25.8434      0.00000
     10      25.8434      0.00000
     11      29.9269      0.00000
     12      30.3376      0.00000

 k-point    10 :       0.5000    0.0000    0.0000
  band No.  band energies     occupation 
      1       2.1065      2.00000
      2       4.6317      2.00000
      3       4.6318      2.00000
      4       7.1529      1.18875
      5       7.1530      1.18796
      6       7.6950      0.00000
      7      11.3820      0.00000
      8      21.6624      0.00000
      9      24.3073      0.00000
     10      24.3074      0.00000
     11      31.5676      0.00000
     12      31.5676      0.00000

 k-point    11 :       0.0000    0.5000    0.0000
  band No.  band energies     occupation 
      1       2.1065      2.00000
      2       4.6317      2.00000
      3       4.6318      2.00000
      4       7.1529      1.18873
      5       7.1530      1.18795
      6       7.6950      0.00000
      7      11.3820      0.00000
      8      21.6623      0.00000
      9      24.3073      0.00000
     10      24.3074      0.00000
     11      31.5676      0.00000
     12      31.5676      0.00000

 k-point    12 :       0.0000    0.0000    0.5000
  band No.  band energies     occupation 
      1       2.1065      2.00000
      2       4.6317      2.00000
      3       4.6318      2.00000
      4       7.1529      1.18874
      5       7.1530      1.18795
      6       7.6950      0.00000
      7      11.3820      0.00000
      8      21.6623      0.00000
      9      24.3073      0.00000
     10      24.3074      0.00000
     11      31.5676      0.00000
     12      31.5676      0.00000

 k-point    13 :       0.5000    0.5000    0.5000
  band No.  band energies     occupation 
      1       2.1065      2.00000
      2       4.6318      2.00000
      3       4.6318      2.00000
      4       7.1529      1.18868
      5       7.1529      1.18866
      6       7.6950      0.00000
      7      11.3818      0.00000
      8      21.6624      0.00000
      9      24.3075      0.00000
     10      24.3075      0.00000
     11      31.5677      0.00000
     12      31.5677      0.00000

 k-point    14 :       0.1667    0.1667    0.0000
  band No.  band energies     occupation 
      1       0.6362      2.00000
      2       4.1086      2.00000
      3       5.1715      2.00000
      4       5.1716      2.00000
      5       5.5104      2.00000
      6       6.3152      2.00000
      7      23.4433      0.00000
      8      23.9239      0.00000
      9      24.2999      0.00000
     10      24.3001      0.00000
     11      28.4277      0.00000
     12      31.4888      0.00000

 k-point    15 :       0.0000    0.1667    0.1667
  band No.  band energies     occupation 
      1       0.6362      2.00000
      2       4.1086      2.00000
      3       5.1715      2.00000
      4       5.1716      2.00000
      5       5.5104      2.00000
      6       6.3152      2.00000
      7      23.4433      0.00000
      8      23.9239      0.00000
      9      24.2999      0.00000
     10      24.3001      0.00000
     11      28.4277      0.00000
     12      31.4889      0.00000

 k-point    16 :       0.1667    0.0000    0.1667
  band No.  band energies     occupation 
      1       0.6362      2.00000
      2       4.1086      2.00000
      3       5.1715      2.00000
      4       5.1716      2.00000
      5       5.5104      2.00000
      6       6.3152      2.00000
      7      23.4433      0.00000
      8      23.9239      0.00000
      9      24.2999      0.00000
     10      24.3001      0.00000
     11      28.4277      0.00000
     12      31.4889      0.00000

 k-point    17 :       0.3333    0.1667    0.0000
  band No.  band energies     occupation 
      1       2.1071      2.00000
      2       3.8847      2.00000
      3       4.7658      2.00000
      4       5.3945      2.00000
      5       6.5213      2.00000
      6       6.7977      2.00000
      7      18.1685      0.00000
      8      22.7831      0.00000
      9      23.2210      0.00000
     10      24.6113      0.00000
     11      28.3060      0.00000
     12      31.5745      0.00000

 k-point    18 :       0.0000    0.3333    0.1667
  band No.  band energies     occupation 
      1       2.1071      2.00000
      2       3.8847      2.00000
      3       4.7658      2.00000
      4       5.3945      2.00000
      5       6.5213      2.00000
      6       6.7977      2.00000
      7      18.1685      0.00000
      8      22.7831      0.00000
      9      23.2210      0.00000
     10      24.6113      0.00000
     11      28.3060      0.00000
     12      31.5745      0.00000

 k-point    19 :       0.1667    0.0000    0.3333
  band No.  band energies     occupation 
      1       2.1071      2.00000
      2       3.8847      2.00000
      3       4.7658      2.00000
      4       5.3945      2.00000
      5       6.5213      2.00000
      6       6.7977      2.00000
      7      18.1685      0.00000
      8      22.7831      0.00000
      9      23.2210      0.00000
     10      24.6113      0.00000
     11      28.3060      0.00000
     12      31.5745      0.00000

 k-point    20 :       0.1667    0.1667   -0.1667
  band No.  band energies     occupation 
      1       2.1071      2.00000
      2       3.8847      2.00000
      3       4.7658      2.00000
      4       5.3946      2.00000
      5       6.5213      2.00000
      6       6.7977      2.00000
      7      18.1685      0.00000
      8      22.7832      0.00000
      9      23.2210      0.00000
     10      24.6114      0.00000
     11      28.3057      0.00000
     12      31.5746      0.00000

 k-point    21 :       0.3333    0.1667    0.3333
  band No.  band energies     occupation 
      1       2.1071      2.00000
      2       3.8847      2.00000
      3       4.7658      2.00000
      4       5.3945      2.00000
      5       6.5213      2.00000
      6       6.7977      2.00000
      7      18.1683      0.00000
      8      22.7833      0.00000
      9      23.2210      0.00000
     10      24.6114      0.00000
     11      28.3059      0.00000
     12      31.5746      0.00000

 k-point    22 :       0.1667    0.3333    0.0000
  band No.  band energies     occupation 
      1       2.1071      2.00000
      2       3.8847      2.00000
      3       4.7658      2.00000
      4       5.3945      2.00000
      5       6.5213      2.00000
      6       6.7977      2.00000
      7      18.1685      0.00000
      8      22.7831      0.00000
      9      23.2210      0.00000
     10      24.6113      0.00000
     11      28.3060      0.00000
     12      31.5745      0.00000

 k-point    23 :       0.1667   -0.1667   -0.1667
  band No.  band energies     occupation 
      1       2.1071      2.00000
      2       3.8847      2.00000
      3       4.7658      2.00000
      4       5.3946      2.00000
      5       6.5213      2.00000
      6       6.7977      2.00000
      7      18.1685      0.00000
      8      22.7832      0.00000
      9      23.2210      0.00000
     10      24.6114      0.00000
     11      28.3057      0.00000
     12      31.5746      0.00000

 k-point    24 :       0.3333    0.3333    0.1667
  band No.  band energies     occupation 
      1       2.1071      2.00000
      2       3.8847      2.00000
      3       4.7658      2.00000
      4       5.3945      2.00000
      5       6.5213      2.00000
      6       6.7977      2.00000
      7      18.1683      0.00000
      8      22.7833      0.00000
      9      23.2210      0.00000
     10      24.6114      0.00000
     11      28.3059      0.00000
     12      31.5746      0.00000

 k-point    25 :       0.0000    0.1667    0.3333
  band No.  band energies     occupation 
      1       2.1071      2.00000
      2       3.8847      2.00000
      3       4.7658      2.00000
      4       5.3945      2.00000
      5       6.5213      2.00000
      6       6.7977      2.00000
      7      18.1685      0.00000
      8      22.7831      0.00000
      9      23.2210      0.00000
     10      24.6113      0.00000
     11      28.3060      0.00000
     12      31.5745      0.00000

 k-point    26 :      -0.1667    0.1667   -0.1667
  band No.  band energies     occupation 
      1       2.1071      2.00000
      2       3.8847      2.00000
      3       4.7658      2.00000
      4       5.3946      2.00000
      5       6.5213      2.00000
      6       6.7977      2.00000
      7      18.1685      0.00000
      8      22.7832      0.00000
      9      23.2210      0.00000
     10      24.6114      0.00000
     11      28.3057      0.00000
     12      31.5746      0.00000

 k-point    27 :       0.1667    0.3333    0.3333
  band No.  band energies     occupation 
      1       2.1071      2.00000
      2       3.8847      2.00000
      3       4.7658      2.00000
      4       5.3945      2.00000
      5       6.5213      2.00000
      6       6.7977      2.00000
      7      18.1683      0.00000
      8      22.7833      0.00000
      9      23.2210      0.00000
     10      24.6114      0.00000
     11      28.3059      0.00000
     12      31.5746      0.00000

 k-point    28 :       0.3333    0.0000    0.1667
  band No.  band energies     occupation 
      1       2.1071      2.00000
      2       3.8847      2.00000
      3       4.7658      2.00000
      4       5.3945      2.00000
      5       6.5213      2.00000
      6       6.7977      2.00000
      7      18.1685      0.00000
      8      22.7831      0.00000
      9      23.2210      0.00000
     10      24.6113      0.00000
     11      28.3060      0.00000
     12      31.5745      0.00000

 k-point    29 :       0.5000    0.1667    0.0000
  band No.  band energies     occupation 
      1       2.6776      2.00000
      2       4.2820      2.00000
      3       5.1524      2.00000
      4       5.1556      2.00000
      5       7.1914      0.39639
      6       9.3072      0.00000
      7      12.3324      0.00000
      8      21.1064      0.00000
      9      22.5733      0.00000
     10      23.2974      0.00000
     11      31.8429      0.00000
     12      32.3741      0.00000

 k-point    30 :       0.0000    0.5000    0.1667
  band No.  band energies     occupation 
      1       2.6776      2.00000
      2       4.2820      2.00000
      3       5.1524      2.00000
      4       5.1556      2.00000
      5       7.1914      0.39639
      6       9.3072      0.00000
      7      12.3324      0.00000
      8      21.1064      0.00000
      9      22.5733      0.00000
     10      23.2974      0.00000
     11      31.8429      0.00000
     12      32.3741      0.00000

 k-point    31 :       0.1667    0.0000    0.5000
  band No.  band energies     occupation 
      1       2.6776      2.00000
      2       4.2820      2.00000
      3       5.1524      2.00000
      4       5.1556      2.00000
      5       7.1914      0.39638
      6       9.3072      0.00000
      7      12.3324      0.00000
      8      21.1064      0.00000
      9      22.5733      0.00000
     10      23.2974      0.00000
     11      31.8429      0.00000
[...]
      1       3.3014      2.00000
      2       3.6568      2.00000
      3       4.3205      2.00000
      4       6.1777      2.00000
      5       6.4921      2.00000
      6       8.6667      0.00000
      7      16.3228      0.00000
      8      18.0195      0.00000
      9      20.9991      0.00000
     10      27.1550      0.00000
     11      27.6176      0.00000
     12      32.0863      0.00000

 k-point    90 :       0.1667   -0.1667   -0.3333
  band No.  band energies     occupation 
      1       3.3014      2.00000
      2       3.6568      2.00000
      3       4.3205      2.00000
      4       6.1777      2.00000
      5       6.4921      2.00000
      6       8.6667      0.00000
      7      16.3228      0.00000
      8      18.0195      0.00000
      9      20.9991      0.00000
     10      27.1550      0.00000
     11      27.6176      0.00000
     12      32.0863      0.00000

 k-point    91 :       0.3333    0.5000    0.1667
  band No.  band energies     occupation 
      1       3.3014      2.00000
      2       3.6569      2.00000
      3       4.3205      2.00000
      4       6.1778      2.00000
      5       6.4921      2.00000
      6       8.6667      0.00000
      7      16.3228      0.00000
      8      18.0194      0.00000
      9      20.9992      0.00000
     10      27.1551      0.00000
     11      27.6176      0.00000
     12      32.0864      0.00000

 k-point    92 :      -0.1667    0.1667   -0.3333
  band No.  band energies     occupation 
      1       3.3014      2.00000
      2       3.6568      2.00000
      3       4.3205      2.00000
      4       6.1777      2.00000
      5       6.4921      2.00000
      6       8.6667      0.00000
      7      16.3228      0.00000
      8      18.0195      0.00000
      9      20.9991      0.00000
     10      27.1550      0.00000
     11      27.6176      0.00000
     12      32.0863      0.00000

 k-point    93 :      -0.3333    0.1667   -0.1667
  band No.  band energies     occupation 
      1       3.3014      2.00000
      2       3.6568      2.00000
      3       4.3205      2.00000
      4       6.1777      2.00000
      5       6.4921      2.00000
      6       8.6667      0.00000
      7      16.3228      0.00000
      8      18.0195      0.00000
      9      20.9991      0.00000
     10      27.1550      0.00000
     11      27.6176      0.00000
     12      32.0863      0.00000

 k-point    94 :       0.1667    0.3333    0.5000
  band No.  band energies     occupation 
      1       3.3014      2.00000
      2       3.6569      2.00000
      3       4.3205      2.00000
      4       6.1778      2.00000
      5       6.4921      2.00000
      6       8.6667      0.00000
      7      16.3228      0.00000
      8      18.0194      0.00000
      9      20.9992      0.00000
     10      27.1551      0.00000
     11      27.6176      0.00000
     12      32.0864      0.00000

 k-point    95 :      -0.3333    0.3333    0.1667
  band No.  band energies     occupation 
      1       3.5848      2.00000
      2       3.7477      2.00000
      3       4.5251      2.00000
      4       5.8156      2.00000
      5       7.0566      1.99695
      6      11.5502      0.00000
      7      12.4337      0.00000
      8      17.5144      0.00000
      9      19.3722      0.00000
     10      26.4226      0.00000
     11      30.0897      0.00000
     12      34.1791      0.00000

 k-point    96 :       0.1667   -0.3333    0.3333
  band No.  band energies     occupation 
      1       3.5848      2.00000
      2       3.7477      2.00000
      3       4.5251      2.00000
      4       5.8156      2.00000
      5       7.0566      1.99695
      6      11.5502      0.00000
      7      12.4337      0.00000
      8      17.5144      0.00000
      9      19.3722      0.00000
     10      26.4226      0.00000
     11      30.0897      0.00000
     12      34.1977      0.00000

 k-point    97 :       0.3333    0.1667   -0.3333
  band No.  band energies     occupation 
      1       3.5848      2.00000
      2       3.7477      2.00000
      3       4.5251      2.00000
      4       5.8156      2.00000
      5       7.0566      1.99695
      6      11.5502      0.00000
      7      12.4337      0.00000
      8      17.5144      0.00000
      9      19.3722      0.00000
     10      26.4226      0.00000
     11      30.0897      0.00000
     12      34.1875      0.00000

 k-point    98 :      -0.3333    0.3333    0.5000
  band No.  band energies     occupation 
      1       3.5849      2.00000
      2       3.7477      2.00000
      3       4.5250      2.00000
      4       5.8157      2.00000
      5       7.0566      1.99696
      6      11.5501      0.00000
      7      12.4337      0.00000
      8      17.5145      0.00000
      9      19.3723      0.00000
     10      26.4227      0.00000
     11      30.0897      0.00000
     12      34.2218      0.00000

 k-point    99 :       0.1667    0.5000   -0.1667
  band No.  band energies     occupation 
      1       3.5849      2.00000
      2       3.7477      2.00000
      3       4.5251      2.00000
      4       5.8156      2.00000
      5       7.0566      1.99695
      6      11.5502      0.00000
      7      12.4338      0.00000
      8      17.5144      0.00000
      9      19.3722      0.00000
     10      26.4225      0.00000
     11      30.0897      0.00000
     12      34.2144      0.00000

 k-point   100 :       0.3333   -0.1667   -0.3333
  band No.  band energies     occupation 
      1       3.5848      2.00000
      2       3.7477      2.00000
      3       4.5251      2.00000
      4       5.8156      2.00000
      5       7.0566      1.99695
      6      11.5502      0.00000
      7      12.4337      0.00000
      8      17.5144      0.00000
      9      19.3722      0.00000
     10      26.4226      0.00000
     11      30.0897      0.00000
     12      34.1820      0.00000

 k-point   101 :       0.5000   -0.3333    0.3333
  band No.  band energies     occupation 
      1       3.5849      2.00000
      2       3.7477      2.00000
      3       4.5250      2.00000
      4       5.8157      2.00000
      5       7.0566      1.99696
      6      11.5501      0.00000
      7      12.4337      0.00000
      8      17.5145      0.00000
      9      19.3723      0.00000
     10      26.4227      0.00000
     11      30.0897      0.00000
     12      34.2250      0.00000

 k-point   102 :      -0.1667    0.1667    0.5000
  band No.  band energies     occupation 
      1       3.5849      2.00000
      2       3.7477      2.00000
      3       4.5251      2.00000
      4       5.8156      2.00000
      5       7.0566      1.99695
      6      11.5502      0.00000
      7      12.4338      0.00000
      8      17.5144      0.00000
      9      19.3722      0.00000
     10      26.4225      0.00000
     11      30.0897      0.00000
     12      34.1766      0.00000

 k-point   103 :      -0.3333    0.3333   -0.1667
  band No.  band energies     occupation 
      1       3.5848      2.00000
      2       3.7477      2.00000
      3       4.5251      2.00000
      4       5.8156      2.00000
      5       7.0566      1.99695
      6      11.5502      0.00000
      7      12.4337      0.00000
      8      17.5144      0.00000
      9      19.3722      0.00000
     10      26.4226      0.00000
     11      30.0897      0.00000
     12      34.1665      0.00000

 k-point   104 :       0.3333    0.5000   -0.3333
  band No.  band energies     occupation 
      1       3.5849      2.00000
      2       3.7477      2.00000
      3       4.5250      2.00000
      4       5.8157      2.00000
      5       7.0566      1.99696
      6      11.5501      0.00000
      7      12.4337      0.00000
      8      17.5145      0.00000
      9      19.3723      0.00000
     10      26.4227      0.00000
     11      30.0897      0.00000
     12      34.2050      0.00000

 k-point   105 :       0.5000   -0.1667    0.1667
  band No.  band energies     occupation 
      1       3.5849      2.00000
      2       3.7477      2.00000
      3       4.5251      2.00000
      4       5.8156      2.00000
      5       7.0566      1.99695
      6      11.5502      0.00000
      7      12.4338      0.00000
      8      17.5144      0.00000
      9      19.3722      0.00000
     10      26.4225      0.00000
     11      30.0897      0.00000
     12      34.1679      0.00000

 k-point   106 :      -0.1667   -0.3333    0.3333
  band No.  band energies     occupation 
      1       3.5848      2.00000
      2       3.7477      2.00000
      3       4.5251      2.00000
      4       5.8156      2.00000
      5       7.0566      1.99695
      6      11.5502      0.00000
      7      12.4337      0.00000
      8      17.5144      0.00000
      9      19.3722      0.00000
     10      26.4226      0.00000
     11      30.0897      0.00000
     12      34.2095      0.00000

 k-point   107 :      -0.3333    0.5000    0.1667
  band No.  band energies     occupation 
      1       3.1264      2.00000
      2       3.3894      2.00000
      3       5.2447      2.00000
      4       6.2948      2.00000
      5       7.4388      0.00000
      6      12.4482      0.00000
      7      12.9382      0.00000
      8      16.0959      0.00000
      9      17.4123      0.00000
     10      28.0105      0.00000
     11      28.3845      0.00000
     12      31.6208      0.00000

 k-point   108 :       0.1667   -0.3333    0.5000
  band No.  band energies     occupation 
      1       3.1264      2.00000
      2       3.3894      2.00000
      3       5.2447      2.00000
      4       6.2948      2.00000
      5       7.4388      0.00000
      6      12.4482      0.00000
      7      12.9382      0.00000
      8      16.0959      0.00000
      9      17.4123      0.00000
     10      28.0105      0.00000
     11      28.3845      0.00000
     12      31.6208      0.00000

 k-point   109 :       0.5000    0.1667   -0.3333
  band No.  band energies     occupation 
      1       3.1264      2.00000
      2       3.3894      2.00000
      3       5.2447      2.00000
      4       6.2948      2.00000
      5       7.4388      0.00000
      6      12.4482      0.00000
      7      12.9382      0.00000
      8      16.0959      0.00000
      9      17.4123      0.00000
     10      28.0105      0.00000
     11      28.3845      0.00000
     12      31.6208      0.00000

 k-point   110 :       0.5000    0.3333   -0.1667
  band No.  band energies     occupation 
      1       3.1264      2.00000
      2       3.3894      2.00000
      3       5.2447      2.00000
      4       6.2948      2.00000
      5       7.4388      0.00000
      6      12.4482      0.00000
      7      12.9382      0.00000
      8      16.0959      0.00000
      9      17.4123      0.00000
     10      28.0105      0.00000
     11      28.3845      0.00000
     12      31.6208      0.00000

 k-point   111 :      -0.3333    0.1667    0.5000
  band No.  band energies     occupation 
      1       3.1264      2.00000
      2       3.3894      2.00000
      3       5.2447      2.00000
      4       6.2948      2.00000
      5       7.4388      0.00000
      6      12.4482      0.00000
      7      12.9382      0.00000
      8      16.0959      0.00000
      9      17.4123      0.00000
     10      28.0105      0.00000
     11      28.3845      0.00000
     12      31.6208      0.00000

 k-point   112 :       0.1667    0.5000   -0.3333
  band No.  band energies     occupation 
      1       3.1264      2.00000
      2       3.3894      2.00000
      3       5.2447      2.00000
      4       6.2948      2.00000
      5       7.4388      0.00000
      6      12.4482      0.00000
      7      12.9382      0.00000
      8      16.0959      0.00000
      9      17.4123      0.00000
     10      28.0105      0.00000
     11      28.3845      0.00000
     12      31.6208      0.00000


--------------------------------------------------------------------------------------------------------


 soft charge-density along one line, spin component            1
         0         1         2         3         4         5         6         7         8         9
 total charge-density along one line
 
 pseudopotential strength for first ion, spin component:            1
 -3.697   0.000  -0.014   0.000   0.008  -3.877   0.000  -0.014
  0.000  -3.697   0.000  -0.016  -0.000   0.000  -3.877   0.000
 -0.014   0.000  -3.712   0.000  -0.005  -0.014   0.000  -3.891
  0.000  -0.016   0.000  -3.709   0.000   0.000  -0.016   0.000
  0.008  -0.000  -0.005   0.000  -3.718   0.008  -0.000  -0.005
 -3.877   0.000  -0.014   0.000   0.008  -4.039   0.000  -0.013
  0.000  -3.877   0.000  -0.016  -0.000   0.000  -4.039   0.000
 -0.014   0.000  -3.891   0.000  -0.005  -0.013   0.000  -4.053
  0.000  -0.016   0.000  -3.889   0.000   0.000  -0.016   0.000
  0.008  -0.000  -0.005   0.000  -3.897   0.008  -0.000  -0.005
 -0.000  -0.000  -0.000  -0.000  -0.000  -0.000  -0.000  -0.000
 -0.000  -0.000  -0.000  -0.000  -0.000  -0.000  -0.000  -0.000
 -0.000  -0.000   0.000  -0.000   0.000  -0.000  -0.000   0.000
 -0.000  -0.000  -0.000   0.000   0.000  -0.000  -0.000  -0.000
 -0.000  -0.000  -0.000  -0.000   0.000  -0.000  -0.000  -0.000
 -0.000  -0.000   0.000  -0.000   0.000  -0.000  -0.000   0.000
 -0.000  -0.000  -0.000   0.000   0.000  -0.000  -0.000  -0.000
 -0.000  -0.000  -0.000  -0.000   0.000  -0.000  -0.000  -0.000
 total augmentation occupancy for first ion, spin component:            1
  3.515   0.000  -0.301  -0.000   0.174  -1.664  -0.000   0.091   0.000  -0.053   0.000  -0.000   0.000  -0.000   0.000  -0.000
  0.000   3.515  -0.000  -0.348  -0.000  -0.000  -1.664   0.000   0.106   0.000   0.000  -0.000   0.000   0.000   0.000  -0.000
 -0.301  -0.000   3.208  -0.000  -0.107   0.091   0.000  -1.571   0.000   0.032   0.000  -0.000  -0.000   0.000   0.000   0.000
 -0.000  -0.348  -0.000   3.269   0.000   0.000   0.106   0.000  -1.589  -0.000   0.000   0.000   0.000  -0.000   0.000  -0.000
  0.174  -0.000  -0.107   0.000   3.085  -0.053   0.000   0.032  -0.000  -1.534   0.000   0.000  -0.000  -0.000  -0.000   0.000
 -1.664  -0.000   0.091   0.000  -0.053   1.596   0.000   0.052  -0.000  -0.030  -0.000   0.000  -0.000   0.000   0.000   0.000
 -0.000  -1.664   0.000   0.106   0.000   0.000   1.596  -0.000   0.060  -0.000  -0.000  -0.000  -0.000  -0.000  -0.000  -0.000
  0.091   0.000  -1.571   0.000   0.032   0.052  -0.000   1.649  -0.000   0.018  -0.000  -0.000   0.000  -0.000   0.000  -0.000
  0.000   0.106   0.000  -1.589  -0.000  -0.000   0.060  -0.000   1.638   0.000  -0.000  -0.000   0.000   0.000  -0.000   0.000
 -0.053   0.000   0.032  -0.000  -1.534  -0.030  -0.000   0.018   0.000   1.670  -0.000  -0.000   0.000   0.000  -0.000  -0.000
  0.000   0.000   0.000   0.000   0.000  -0.000  -0.000  -0.000  -0.000  -0.000   1.922  -0.376  -0.000  -0.000   0.000   0.000
 -0.000  -0.000  -0.000   0.000   0.000   0.000  -0.000  -0.000  -0.000  -0.000  -0.376   0.085   0.000   0.000  -0.000  -0.000
  0.000   0.000  -0.000   0.000  -0.000  -0.000  -0.000   0.000   0.000   0.000  -0.000   0.000   0.180  -0.000  -0.000  -0.011
 -0.000   0.000   0.000  -0.000  -0.000   0.000  -0.000  -0.000   0.000   0.000  -0.000   0.000  -0.000   0.180  -0.000   0.000
  0.000   0.000   0.000   0.000  -0.000   0.000  -0.000   0.000  -0.000  -0.000   0.000  -0.000  -0.000  -0.000   0.180   0.000
 -0.000  -0.000   0.000  -0.000   0.000   0.000  -0.000  -0.000   0.000  -0.000   0.000  -0.000  -0.011   0.000   0.000   0.001
 -0.000  -0.000  -0.000   0.000  -0.000  -0.000  -0.000  -0.000  -0.000  -0.000   0.000  -0.000   0.000  -0.011   0.000  -0.000
 -0.000  -0.000  -0.000  -0.000   0.000  -0.000   0.000  -0.000   0.000   0.000  -0.000   0.000   0.000  -0.000  -0.011  -0.000


------------------------ aborting loop because EDIFF is reached ----------------------------------------





 total charge

# of ion       s       p       d       tot
------------------------------------------
    1        0.534   0.347   7.931   8.812
 
    CHARGE:  cpu time    0.0070: real time    0.0070
    FORLOC:  cpu time    0.0001: real time    0.0001
    FORNL :  cpu time    0.0221: real time    0.0223
    FORCOR:  cpu time    0.0071: real time    0.0071
    FORHAR:  cpu time    0.0010: real time    0.0010
    MIXING:  cpu time    0.0003: real time    0.0003
    OFIELD:  cpu time    0.0000: real time    0.0000

 VOLUME and BASIS-vectors are now :
 -----------------------------------------------------------------------------
  energy-cutoff  :      420.00
  volume of cell :       19.36
      direct lattice vectors                 reciprocal lattice vectors
     2.610171000  0.000005000  1.506998000     0.383117305 -0.135453104 -0.000000665
     0.870063000  2.460890000  1.506998000    -0.000000389  0.406357600 -0.000000674
     0.000007000  0.000005000  3.013973000    -0.191559920 -0.135453282  0.331788645

  length of vectors
     3.013973394  3.013972825  3.013973000     0.406357494  0.406357600  0.406357600


 FORCES acting on ions
    electron-ion (+dipol)            ewald-force                    non-local-force                 convergence-correction
 -----------------------------------------------------------------------------------------------
   -.141E-04 -.354E-04 -.503E-04   0.178E-14 0.216E-15 -.861E-16   -.256E-05 0.209E-04 0.285E-04   0.101E-04 0.173E-04 0.307E-04
 -----------------------------------------------------------------------------------------------
   -.141E-04 -.354E-04 -.503E-04   0.178E-14 0.216E-15 -.861E-16   -.256E-05 0.209E-04 0.285E-04   0.101E-04 0.173E-04 0.307E-04
 
 
 POSITION                                       TOTAL-FORCE (eV/Angst)
 -----------------------------------------------------------------------------------
      0.00000      0.00000      0.00000        -0.000007      0.000003      0.000009
 -----------------------------------------------------------------------------------
    total drift:                               -0.000007      0.000003      0.000009


--------------------------------------------------------------------------------------------------------



  FREE ENERGIE OF THE ION-ELECTRON SYSTEM (eV)
  ---------------------------------------------------
  free  energy   TOTEN  =        -5.17271086 eV

  energy  without entropy=       -5.16922203  energy(sigma->0) =       -5.17096645
 


--------------------------------------------------------------------------------------------------------


    POTLOK:  cpu time    0.0072: real time    0.0073


--------------------------------------------------------------------------------------------------------


     LOOP+:  cpu time    4.1772: real time    4.2045
    4ORBIT:  cpu time    0.0000: real time    0.0000



 total charge

# of ion       s       p       d       tot
------------------------------------------
    1        0.534   0.347   7.931   8.812
 

 total amount of memory used by VASP MPI-rank0    32696. kBytes
=======================================================================

   base      :      30000. kBytes
   nonl-proj :       1743. kBytes
   fftplans  :        106. kBytes
   grid      :        144. kBytes
   one-center:         15. kBytes
   wavefun   :        688. kBytes
 
  
  
 General timing and accounting informations for this job:
 ========================================================
  
                  Total CPU time used (sec):        5.343
                            User time (sec):        5.064
                          System time (sec):        0.279
                         Elapsed time (sec):       10.436
  
                   Maximum memory used (kb):       54136.
                   Average memory used (kb):          N/A
  
                          Minor page faults:         6833
                          Major page faults:          266
                 Voluntary context switches:         5547
