 running on   16 total cores
 distrk:  each k-point on   16 cores,    1 groups
 distr:  one band on    4 cores,    4 groups
 vasp.6.2.0 18Jan21 (build Feb  1 2022 01:28:57) complex                         
 POSCAR found type information on POSCAR Pt
 POSCAR found :  1 types and       1 ions
 scaLAPACK will be used
 -----------------------------------------------------------------------------
|                                                                             |
|               ----> ADVICE to this user running VASP <----                  |
|                                                                             |
|     You enforced a specific xc type in the INCAR file but a different       |
|     type was found in the POTCAR file.                                      |
|     I HOPE YOU KNOW WHAT YOU ARE DOING!                                     |
|                                                                             |
 -----------------------------------------------------------------------------

 LDA part: xc-table for Pade appr. of Perdew
 -----------------------------------------------------------------------------
|                                                                             |
|           W    W    AA    RRRRR   N    N  II  N    N   GGGG   !!!           |
|           W    W   A  A   R    R  NN   N  II  NN   N  G    G  !!!           |
|           W    W  A    A  R    R  N N  N  II  N N  N  G       !!!           |
|           W WW W  AAAAAA  RRRRR   N  N N  II  N  N N  G  GGG   !            |
|           WW  WW  A    A  R   R   N   NN  II  N   NN  G    G                |
|           W    W  A    A  R    R  N    N  II  N    N   GGGG   !!!           |
|                                                                             |
|     The requested file  could not be found or opened for reading            |
|     k-point information. Automatic k-point generation is used as a          |
|     fallback, which may lead to unwanted results.                           |
|                                                                             |
 -----------------------------------------------------------------------------

 POSCAR, INCAR and KPOINTS ok, starting setup
 FFT: planning ...
 WAVECAR not read
 entering main loop
       N       E                     dE             d eps       ncg     rms          rms(c)
DAV:   1     0.316602030034E+02    0.31660E+02   -0.44366E+03  2920   0.617E+02
DAV:   2    -0.501813181676E+01   -0.36678E+02   -0.34847E+02  3180   0.142E+02
DAV:   3    -0.549114790398E+01   -0.47302E+00   -0.46881E+00  3240   0.150E+01
DAV:   4    -0.549333382194E+01   -0.21859E-02   -0.21856E-02  3264   0.122E+00
DAV:   5    -0.549335578285E+01   -0.21961E-04   -0.21961E-04  3324   0.114E-01    0.599E+00
DAV:   6    -0.518159020196E+01    0.31177E+00   -0.10385E+00  2908   0.684E+00    0.345E+00
DAV:   7    -0.517324385582E+01    0.83463E-02   -0.31895E-02  3192   0.129E+00    0.199E+00
DAV:   8    -0.517279069497E+01    0.45316E-03   -0.19307E-03  2908   0.323E-01    0.221E-01
DAV:   9    -0.517271086262E+01    0.79832E-04   -0.23218E-04  2088   0.110E-01
   1 F= -.51727109E+01 E0= -.51709664E+01  d E =-.348883E-02
