<?xml version="1.0" encoding="ISO-8859-1"?>
<modeling>
 <generator>
  <i name="program" type="string">vasp </i>
  <i name="version" type="string">6.2.0  </i>
  <i name="subversion" type="string">18Jan21 (build Feb  1 2022 01:28:57) complex                          parallel </i>
  <i name="platform" type="string">LinuxPGI </i>
  <i name="date" type="string">2022 05 18 </i>
  <i name="time" type="string">19:37:19 </i>
 </generator>
 <incar>
  <i type="string" name="PREC">Normal</i>
  <i type="string" name="ALGO">38</i>
  <i type="int" name="ISPIN">     1</i>
  <i type="int" name="NELM">    60</i>
  <i type="int" name="NELMIN">     4</i>
  <i type="int" name="IBRION">     2</i>
  <i name="EDIFF">      0.00010000</i>
  <i name="EDIFFG">     -0.03000000</i>
  <i type="int" name="NSW">     0</i>
  <i type="int" name="ISIF">     0</i>
  <i type="int" name="ISYM">     0</i>
  <i name="SYMPREC">      0.00001000</i>
  <i name="ENCUT">    420.00000000</i>
  <i type="logical" name="LREAL"> F  </i>
  <i type="int" name="ISMEAR">     0</i>
  <i name="SIGMA">      0.05000000</i>
  <i type="logical" name="LWAVE"> F  </i>
  <i type="logical" name="LVTOT"> F  </i>
  <i type="int" name="LORBIT">    11</i>
  <i type="logical" name="LASPH"> F  </i>
  <i type="string" name="GGA">RP</i>
 </incar>
 <primitive_cell>
  <structure name="primitive_cell" >
   <crystal>
    <varray name="basis" >
     <v>       2.61017100       0.00000500       1.50699800 </v>
     <v>       0.87006300       2.46089000       1.50699800 </v>
     <v>       0.00000700       0.00000500       3.01397300 </v>
    </varray>
    <i name="volume">     19.35973233 </i>
    <varray name="rec_basis" >
     <v>       0.38311731      -0.13545310      -0.00000067 </v>
     <v>      -0.00000039       0.40635760      -0.00000067 </v>
     <v>      -0.19155992      -0.13545328       0.33178865 </v>
    </varray>
   </crystal>
   <varray name="positions" >
    <v>       0.00000000       0.00000000       0.00000000 </v>
   </varray>
  </structure>
  <varray name="primitive_index" >
   <v type="int" >        1 </v>
  </varray>
 </primitive_cell>
 <kpoints>
  <generation param="Gamma">
   <v type="int" name="divisions">       6        6        6 </v>
   <v name="usershift">      0.00000000       0.00000000       0.00000000 </v>
   <v name="genvec1">      0.16666667      -0.00000000       0.00000000 </v>
   <v name="genvec2">      0.00000000       0.16666667       0.00000000 </v>
   <v name="genvec3">      0.00000000       0.00000000       0.16666667 </v>
   <v name="shift">      0.00000000       0.00000000       0.00000000 </v>
  </generation>
  <varray name="kpointlist" >
   <v>       0.00000000       0.00000000       0.00000000 </v>
   <v>       0.16666667       0.00000000       0.00000000 </v>
   <v>       0.00000000       0.16666667       0.00000000 </v>
   <v>       0.00000000       0.00000000       0.16666667 </v>
   <v>       0.16666667       0.16666667       0.16666667 </v>
   <v>       0.33333333       0.00000000       0.00000000 </v>
   <v>       0.00000000       0.33333333       0.00000000 </v>
   <v>       0.00000000       0.00000000       0.33333333 </v>
   <v>       0.33333333       0.33333333       0.33333333 </v>
   <v>       0.50000000       0.00000000       0.00000000 </v>
   <v>       0.00000000       0.50000000       0.00000000 </v>
   <v>       0.00000000       0.00000000       0.50000000 </v>
   <v>       0.50000000       0.50000000       0.50000000 </v>
   <v>       0.16666667       0.16666667       0.00000000 </v>
   <v>       0.00000000       0.16666667       0.16666667 </v>
   <v>       0.16666667       0.00000000       0.16666667 </v>
   <v>       0.33333333       0.16666667       0.00000000 </v>
   <v>       0.00000000       0.33333333       0.16666667 </v>
   <v>       0.16666667       0.00000000       0.33333333 </v>
   <v>       0.16666667       0.16666667      -0.16666667 </v>
   <v>       0.33333333       0.16666667       0.33333333 </v>
   <v>       0.16666667       0.33333333       0.00000000 </v>
   <v>       0.16666667      -0.16666667      -0.16666667 </v>
   <v>       0.33333333       0.33333333       0.16666667 </v>
   <v>       0.00000000       0.16666667       0.33333333 </v>
   <v>      -0.16666667       0.16666667      -0.16666667 </v>
   <v>       0.16666667       0.33333333       0.33333333 </v>
   <v>       0.33333333       0.00000000       0.16666667 </v>
   <v>       0.50000000       0.16666667       0.00000000 </v>
   <v>       0.00000000       0.50000000       0.16666667 </v>
   <v>       0.16666667       0.00000000       0.50000000 </v>
   <v>       0.16666667       0.16666667      -0.33333333 </v>
   <v>       0.50000000       0.33333333       0.50000000 </v>
   <v>       0.16666667       0.50000000       0.00000000 </v>
   <v>       0.33333333      -0.16666667      -0.16666667 </v>
   <v>       0.50000000       0.50000000       0.33333333 </v>
   <v>       0.00000000       0.16666667       0.50000000 </v>
   <v>      -0.16666667       0.33333333      -0.16666667 </v>
   <v>       0.33333333       0.50000000       0.50000000 </v>
   <v>       0.50000000       0.00000000       0.16666667 </v>
   <v>      -0.33333333       0.16666667       0.00000000 </v>
   <v>       0.00000000      -0.33333333       0.16666667 </v>
   <v>       0.16666667       0.00000000      -0.33333333 </v>
   <v>       0.16666667       0.16666667       0.50000000 </v>
   <v>      -0.33333333       0.50000000      -0.33333333 </v>
   <v>       0.16666667      -0.33333333       0.00000000 </v>
   <v>       0.50000000      -0.16666667      -0.16666667 </v>
   <v>      -0.33333333      -0.33333333       0.50000000 </v>
   <v>       0.00000000       0.16666667      -0.33333333 </v>
   <v>      -0.16666667       0.50000000      -0.16666667 </v>
   <v>       0.50000000      -0.33333333      -0.33333333 </v>
   <v>      -0.33333333       0.00000000       0.16666667 </v>
   <v>      -0.16666667       0.16666667       0.00000000 </v>
   <v>       0.00000000      -0.16666667       0.16666667 </v>
   <v>       0.16666667       0.00000000      -0.16666667 </v>
   <v>       0.16666667       0.16666667       0.33333333 </v>
   <v>      -0.16666667      -0.33333333      -0.16666667 </v>
   <v>      -0.33333333      -0.16666667      -0.16666667 </v>
   <v>       0.33333333       0.33333333       0.00000000 </v>
   <v>       0.00000000       0.33333333       0.33333333 </v>
   <v>       0.33333333       0.00000000       0.33333333 </v>
   <v>       0.50000000       0.33333333       0.00000000 </v>
   <v>       0.00000000       0.50000000       0.33333333 </v>
   <v>       0.33333333       0.00000000       0.50000000 </v>
   <v>       0.33333333       0.33333333      -0.16666667 </v>
   <v>       0.50000000       0.16666667       0.50000000 </v>
   <v>       0.33333333       0.50000000       0.00000000 </v>
   <v>       0.16666667      -0.33333333      -0.33333333 </v>
   <v>       0.50000000       0.50000000       0.16666667 </v>
   <v>       0.00000000       0.33333333       0.50000000 </v>
   <v>      -0.33333333       0.16666667      -0.33333333 </v>
   <v>       0.16666667       0.50000000       0.50000000 </v>
   <v>       0.50000000       0.00000000       0.33333333 </v>
   <v>      -0.33333333       0.33333333       0.00000000 </v>
   <v>       0.00000000      -0.33333333       0.33333333 </v>
   <v>       0.33333333       0.00000000      -0.33333333 </v>
   <v>       0.33333333       0.33333333      -0.33333333 </v>
   <v>      -0.33333333       0.33333333      -0.33333333 </v>
   <v>       0.33333333      -0.33333333      -0.33333333 </v>
   <v>       0.50000000       0.50000000       0.00000000 </v>
   <v>       0.00000000       0.50000000       0.50000000 </v>
   <v>       0.50000000       0.00000000       0.50000000 </v>
   <v>       0.50000000       0.33333333       0.16666667 </v>
   <v>       0.16666667       0.50000000       0.33333333 </v>
   <v>       0.33333333       0.16666667       0.50000000 </v>
   <v>       0.33333333       0.16666667      -0.16666667 </v>
   <v>       0.50000000       0.16666667       0.33333333 </v>
   <v>       0.16666667      -0.33333333      -0.16666667 </v>
   <v>       0.16666667       0.33333333      -0.16666667 </v>
   <v>       0.16666667      -0.16666667      -0.33333333 </v>
   <v>       0.33333333       0.50000000       0.16666667 </v>
   <v>      -0.16666667       0.16666667      -0.33333333 </v>
   <v>      -0.33333333       0.16666667      -0.16666667 </v>
   <v>       0.16666667       0.33333333       0.50000000 </v>
   <v>      -0.33333333       0.33333333       0.16666667 </v>
   <v>       0.16666667      -0.33333333       0.33333333 </v>
   <v>       0.33333333       0.16666667      -0.33333333 </v>
   <v>      -0.33333333       0.33333333       0.50000000 </v>
   <v>       0.16666667       0.50000000      -0.16666667 </v>
   <v>       0.33333333      -0.16666667      -0.33333333 </v>
   <v>       0.50000000      -0.33333333       0.33333333 </v>
   <v>      -0.16666667       0.16666667       0.50000000 </v>
   <v>      -0.33333333       0.33333333      -0.16666667 </v>
   <v>       0.33333333       0.50000000      -0.33333333 </v>
   <v>       0.50000000      -0.16666667       0.16666667 </v>
   <v>      -0.16666667      -0.33333333       0.33333333 </v>
   <v>      -0.33333333       0.50000000       0.16666667 </v>
   <v>       0.16666667      -0.33333333       0.50000000 </v>
   <v>       0.50000000       0.16666667      -0.33333333 </v>
   <v>       0.50000000       0.33333333      -0.16666667 </v>
   <v>      -0.33333333       0.16666667       0.50000000 </v>
   <v>       0.16666667       0.50000000      -0.33333333 </v>
  </varray>
  <varray name="weights" >
   <v>       0.00462963 </v>
   <v>       0.00925926 </v>
   <v>       0.00925926 </v>
   <v>       0.00925926 </v>
   <v>       0.00925926 </v>
   <v>       0.00925926 </v>
   <v>       0.00925926 </v>
   <v>       0.00925926 </v>
   <v>       0.00925926 </v>
   <v>       0.00462963 </v>
   <v>       0.00462963 </v>
   <v>       0.00462963 </v>
   <v>       0.00462963 </v>
   <v>       0.00925926 </v>
   <v>       0.00925926 </v>
   <v>       0.00925926 </v>
   <v>       0.00925926 </v>
   <v>       0.00925926 </v>
   <v>       0.00925926 </v>
   <v>       0.00925926 </v>
   <v>       0.00925926 </v>
   <v>       0.00925926 </v>
   <v>       0.00925926 </v>
   <v>       0.00925926 </v>
   <v>       0.00925926 </v>
   <v>       0.00925926 </v>
   <v>       0.00925926 </v>
   <v>       0.00925926 </v>
   <v>       0.00925926 </v>
   <v>       0.00925926 </v>
   <v>       0.00925926 </v>
   <v>       0.00925926 </v>
   <v>       0.00925926 </v>
   <v>       0.00925926 </v>
   <v>       0.00925926 </v>
   <v>       0.00925926 </v>
   <v>       0.00925926 </v>
   <v>       0.00925926 </v>
   <v>       0.00925926 </v>
   <v>       0.00925926 </v>
   <v>       0.00925926 </v>
   <v>       0.00925926 </v>
   <v>       0.00925926 </v>
   <v>       0.00925926 </v>
   <v>       0.00925926 </v>
   <v>       0.00925926 </v>
   <v>       0.00925926 </v>
   <v>       0.00925926 </v>
   <v>       0.00925926 </v>
   <v>       0.00925926 </v>
   <v>       0.00925926 </v>
   <v>       0.00925926 </v>
   <v>       0.00925926 </v>
   <v>       0.00925926 </v>
   <v>       0.00925926 </v>
   <v>       0.00925926 </v>
   <v>       0.00925926 </v>
   <v>       0.00925926 </v>
   <v>       0.00925926 </v>
   <v>       0.00925926 </v>
   <v>       0.00925926 </v>
   <v>       0.00925926 </v>
   <v>       0.00925926 </v>
   <v>       0.00925926 </v>
   <v>       0.00925926 </v>
   <v>       0.00925926 </v>
   <v>       0.00925926 </v>
   <v>       0.00925926 </v>
   <v>       0.00925926 </v>
   <v>       0.00925926 </v>
   <v>       0.00925926 </v>
   <v>       0.00925926 </v>
   <v>       0.00925926 </v>
   <v>       0.00925926 </v>
   <v>       0.00925926 </v>
   <v>       0.00925926 </v>
   <v>       0.00925926 </v>
   <v>       0.00925926 </v>
   <v>       0.00925926 </v>
   <v>       0.00462963 </v>
   <v>       0.00462963 </v>
   <v>       0.00462963 </v>
   <v>       0.00925926 </v>
   <v>       0.00925926 </v>
   <v>       0.00925926 </v>
   <v>       0.00925926 </v>
   <v>       0.00925926 </v>
   <v>       0.00925926 </v>
   <v>       0.00925926 </v>
   <v>       0.00925926 </v>
   <v>       0.00925926 </v>
   <v>       0.00925926 </v>
   <v>       0.00925926 </v>
   <v>       0.00925926 </v>
   <v>       0.00925926 </v>
   <v>       0.00925926 </v>
   <v>       0.00925926 </v>
   <v>       0.00925926 </v>
   <v>       0.00925926 </v>
   <v>       0.00925926 </v>
   <v>       0.00925926 </v>
   <v>       0.00925926 </v>
   <v>       0.00925926 </v>
   <v>       0.00925926 </v>
   <v>       0.00925926 </v>
   <v>       0.00925926 </v>
   <v>       0.00925926 </v>
   <v>       0.00925926 </v>
   <v>       0.00925926 </v>
   <v>       0.00925926 </v>
   <v>       0.00925926 </v>
   <v>       0.00925926 </v>
  </varray>
 </kpoints>
 <parameters>
  <separator name="general" >
   <i type="string" name="SYSTEM">unknown system</i>
   <i type="logical" name="LCOMPAT"> F  </i>
  </separator>
  <separator name="electronic" >
   <i type="string" name="PREC">normal</i>
   <i name="ENMAX">    420.00000000</i>
   <i name="ENAUG">    358.96600000</i>
   <i name="EDIFF">      0.00010000</i>
   <i type="int" name="IALGO">    38</i>
   <i type="int" name="IWAVPR">    10</i>
   <i type="int" name="NBANDS">    12</i>
   <i type="int" name="NBANDSLOW">    -1</i>
   <i type="int" name="NBANDSHIGH">    -1</i>
   <i name="NELECT">     10.00000000</i>
   <i type="int" name="TURBO">     0</i>
   <i type="int" name="IRESTART">     0</i>
   <i type="int" name="NREBOOT">     0</i>
   <i type="int" name="NMIN">     0</i>
   <i name="EREF">      0.00000000</i>
   <separator name="electronic smearing" >
    <i type="int" name="ISMEAR">     0</i>
    <i name="SIGMA">      0.05000000</i>
    <i name="KSPACING">      0.50000000</i>
    <i type="logical" name="KGAMMA"> T  </i>
    <i type="logical" name="KBLOWUP"> T  </i>
   </separator>
   <separator name="electronic projectors" >
    <i type="logical" name="LREAL"> F  </i>
    <v name="ROPT">      0.00000000</v>
    <i type="int" name="LMAXPAW">  -100</i>
    <i type="int" name="LMAXMIX">     2</i>
    <i type="logical" name="NLSPLINE"> F  </i>
   </separator>
   <separator name="electronic startup" >
    <i type="int" name="ISTART">     0</i>
    <i type="int" name="ICHARG">     2</i>
    <i type="int" name="INIWAV">     1</i>
   </separator>
   <separator name="electronic spin" >
    <i type="int" name="ISPIN">     1</i>
    <i type="logical" name="LNONCOLLINEAR"> F  </i>
    <v name="MAGMOM">      1.00000000</v>
    <i name="NUPDOWN">     -1.00000000</i>
    <i type="logical" name="LSORBIT"> F  </i>
    <v name="SAXIS">      0.00000000      0.00000000      1.00000000</v>
    <i type="logical" name="LSPIRAL"> F  </i>
    <v name="QSPIRAL">      0.00000000      0.00000000      0.00000000</v>
    <i type="logical" name="LZEROZ"> F  </i>
   </separator>
   <separator name="electronic exchange-correlation" >
    <i type="logical" name="LASPH"> F  </i>
    <i type="logical" name="LMETAGGA"> F  </i>
   </separator>
   <separator name="electronic convergence" >
    <i type="int" name="NELM">    60</i>
    <i type="int" name="NELMDL">    -5</i>
    <i type="int" name="NELMIN">     4</i>
    <i name="ENINI">    420.00000000</i>
    <separator name="electronic convergence detail" >
     <i type="logical" name="LDIAG"> T  </i>
     <i type="logical" name="LSUBROT"> F  </i>
     <i name="WEIMIN">      0.00000000</i>
     <i name="EBREAK">      0.00000208</i>
     <i name="DEPER">      0.30000000</i>
     <i type="int" name="NRMM">     4</i>
     <i name="TIME">      0.40000000</i>
    </separator>
   </separator>
   <separator name="electronic mixer" >
    <i name="AMIX">      0.40000000</i>
    <i name="BMIX">      1.00000000</i>
    <i name="AMIN">      0.10000000</i>
    <i name="AMIX_MAG">      1.60000000</i>
    <i name="BMIX_MAG">      1.00000000</i>
    <separator name="electronic mixer details" >
     <i type="int" name="IMIX">     4</i>
     <i type="logical" name="MIXFIRST"> F  </i>
     <i type="int" name="MAXMIX">   -45</i>
     <i name="WC">    100.00000000</i>
     <i type="int" name="INIMIX">     1</i>
     <i type="int" name="MIXPRE">     1</i>
     <i type="int" name="MREMOVE">     5</i>
    </separator>
   </separator>
   <separator name="electronic dipolcorrection" >
    <i type="logical" name="LDIPOL"> F  </i>
    <i type="logical" name="LMONO"> F  </i>
    <i type="int" name="IDIPOL">     0</i>
    <i name="EPSILON">      1.00000000</i>
    <v name="DIPOL">   -100.00000000   -100.00000000   -100.00000000</v>
    <i name="EFIELD">      0.00000000</i>
   </separator>
  </separator>
  <separator name="grids" >
   <i type="int" name="NGX">    16</i>
   <i type="int" name="NGY">    16</i>
   <i type="int" name="NGZ">    16</i>
   <i type="int" name="NGXF">    32</i>
   <i type="int" name="NGYF">    32</i>
   <i type="int" name="NGZF">    32</i>
   <i type="logical" name="ADDGRID"> F  </i>
  </separator>
  <separator name="ionic" >
   <i type="int" name="NSW">     0</i>
   <i type="int" name="IBRION">    -1</i>
   <i type="int" name="MDALGO">     0</i>
   <i type="int" name="ISIF">     0</i>
   <i name="PSTRESS">      0.00000000</i>
   <i name="EDIFFG">     -0.03000000</i>
   <i type="int" name="NFREE">     1</i>
   <i name="POTIM">      0.50000000</i>
   <i name="SMASS">     -3.00000000</i>
   <i name="SCALEE">      1.00000000</i>
  </separator>
  <separator name="ionic md" >
   <i name="TEBEG">      0.00010000</i>
   <i name="TEEND">      0.00010000</i>
   <i type="int" name="NBLOCK">     1</i>
   <i type="int" name="KBLOCK">     1</i>
   <i type="int" name="NPACO">   256</i>
   <i name="APACO">     16.00000000</i>
  </separator>
  <separator name="symmetry" >
   <i type="int" name="ISYM">     0</i>
   <i name="SYMPREC">      0.00001000</i>
  </separator>
  <separator name="dos" >
   <i type="int" name="LORBIT">    11</i>
   <v name="RWIGS">     -1.00000000</v>
   <i type="int" name="NEDOS">   301</i>
   <i name="EMIN">     10.00000000</i>
   <i name="EMAX">    -10.00000000</i>
   <i name="EFERMI">      0.00000000</i>
  </separator>
  <separator name="writing" >
   <i type="int" name="NWRITE">     2</i>
   <i type="logical" name="LWAVE"> F  </i>
   <i type="logical" name="LDOWNSAMPLE"> F  </i>
   <i type="logical" name="LCHARG"> T  </i>
   <i type="logical" name="LPARD"> F  </i>
   <i type="logical" name="LVTOT"> F  </i>
   <i type="logical" name="LVHAR"> F  </i>
   <i type="logical" name="LELF"> F  </i>
   <i type="logical" name="LOPTICS"> F  </i>
   <v name="STM">      0.00000000      0.00000000      0.00000000      0.00000000      0.00000000      0.00000000      0.00000000</v>
  </separator>
  <separator name="performance" >
   <i type="int" name="NPAR">     4</i>
   <i type="int" name="NSIM">     4</i>
   <i type="int" name="NBLK">    -1</i>
   <i type="logical" name="LPLANE"> T  </i>
   <i type="logical" name="LSCALAPACK"> T  </i>
   <i type="logical" name="LSCAAWARE"> F  </i>
   <i type="logical" name="LSCALU"> F  </i>
   <i type="logical" name="LASYNC"> F  </i>
   <i type="logical" name="LORBITALREAL"> F  </i>
  </separator>
  <separator name="miscellaneous" >
   <i type="int" name="IDIOT">     3</i>
   <i type="int" name="PHON_NSTRUCT">    -1</i>
   <i type="logical" name="LMUSIC"> F  </i>
   <v name="POMASS">    195.08000000</v>
   <v name="DARWINR">      0.00000000</v>
   <v name="DARWINV">      1.00000000</v>
   <i type="logical" name="LCORR"> T  </i>
  </separator>
  <i type="logical" name="GGA_COMPAT"> T  </i>
  <i type="logical" name="LBERRY"> F  </i>
  <i type="int" name="ICORELEVEL">     0</i>
  <i type="logical" name="LDAU"> F  </i>
  <i type="int" name="I_CONSTRAINED_M">     0</i>
  <separator name="electronic exchange-correlation" >
   <i type="string" name="GGA">RP</i>
   <i type="int" name="VOSKOWN">     0</i>
   <i type="logical" name="LHFCALC"> F  </i>
   <i type="string" name="PRECFOCK"></i>
   <i type="logical" name="LSYMGRAD"> F  </i>
   <i type="logical" name="LHFONE"> F  </i>
   <i type="logical" name="LRHFCALC"> F  </i>
   <i type="logical" name="LTHOMAS"> F  </i>
   <i type="logical" name="LMODELHF"> F  </i>
   <i type="logical" name="LFOCKACE"> F  </i>
   <i name="ENCUT4O">     -1.00000000</i>
   <i type="int" name="EXXOEP">     0</i>
   <i type="int" name="FOURORBIT">     0</i>
   <i name="AEXX">      0.00000000</i>
   <i name="HFALPHA">      0.00000000</i>
   <i name="MCALPHA">      0.00000000</i>
   <i name="ALDAX">      1.00000000</i>
   <i name="AGGAX">      1.00000000</i>
   <i name="ALDAC">      1.00000000</i>
   <i name="AGGAC">      1.00000000</i>
   <i type="int" name="NKREDX">     1</i>
   <i type="int" name="NKREDY">     1</i>
   <i type="int" name="NKREDZ">     1</i>
   <i type="logical" name="SHIFTRED"> F  </i>
   <i type="logical" name="ODDONLY"> F  </i>
   <i type="logical" name="EVENONLY"> F  </i>
   <i type="int" name="LMAXFOCK">     0</i>
   <i type="int" name="NMAXFOCKAE">     0</i>
   <i type="logical" name="LFOCKAEDFT"> F  </i>
   <i name="HFSCREEN">      0.00000000</i>
   <i name="HFSCREENC">      0.00000000</i>
   <i type="int" name="NBANDSGWLOW">     0</i>
  </separator>
  <separator name="vdW DFT" >
   <i type="logical" name="LUSE_VDW"> F  </i>
   <i name="Zab_VDW">     -0.84910000</i>
   <i name="PARAM1">      0.12340000</i>
   <i name="PARAM2">      1.00000000</i>
   <i name="PARAM3">      0.00000000</i>
  </separator>
  <separator name="model GW" >
   <i type="int" name="MODEL_GW">     0</i>
   <i name="MODEL_EPS0">     11.61583940</i>
   <i name="MODEL_ALPHA">      1.00000000</i>
  </separator>
  <separator name="linear response parameters" >
   <i type="logical" name="LEPSILON"> F  </i>
   <i type="logical" name="LRPA"> F  </i>
   <i type="logical" name="LNABLA"> F  </i>
   <i type="logical" name="LVEL"> F  </i>
   <i type="int" name="KINTER">     0</i>
   <i name="CSHIFT">      0.10000000</i>
   <i name="OMEGAMAX">     -1.00000000</i>
   <i name="DEG_THRESHOLD">      0.00200000</i>
   <i name="RTIME">     -0.10000000</i>
   <i name="WPLASMAI">      0.00000000</i>
   <v name="DFIELD">      0.00000000      0.00000000      0.00000000</v>
   <v name="WPLASMA">      0.00000000      0.00000000      0.00000000      0.00000000      0.00000000      0.00000000      0.00000000      0.00000000      0.00000000</v>
  </separator>
  <separator name="orbital magnetization" >
   <i type="logical" name="NUCIND"> F  </i>
   <v name="MAGPOS">      0.00000000      0.00000000      0.00000000</v>
   <i type="logical" name="LNICSALL"> T  </i>
   <i type="logical" name="ORBITALMAG"> F  </i>
   <i type="logical" name="LMAGBLOCH"> F  </i>
   <i type="logical" name="LCHIMAG"> F  </i>
   <i type="logical" name="LGAUGE"> T  </i>
   <i type="int" name="MAGATOM">     0</i>
   <v name="MAGDIPOL">      0.00000000      0.00000000      0.00000000</v>
   <v name="AVECCONST">      0.00000000      0.00000000      0.00000000</v>
  </separator>
  <separator name="response functions" >
   <i type="logical" name="LFINITE_TEMPERATURE"> F  </i>
   <i type="logical" name="LADDER"> F  </i>
   <i type="logical" name="LRPAFORCE"> F  </i>
   <i type="logical" name="LFXC"> F  </i>
   <i type="logical" name="LHARTREE"> T  </i>
   <i type="int" name="IBSE">     0</i>
   <v type="int" name="KPOINT">    -1     0     0     0</v>
   <i type="logical" name="LTCTC"> F  </i>
   <i type="logical" name="LTCTE"> F  </i>
   <i type="logical" name="LTETE"> F  </i>
   <i type="logical" name="LTRIPLET"> F  </i>
   <i type="logical" name="LFXCEPS"> F  </i>
   <i type="logical" name="LFXHEG"> F  </i>
   <i type="int" name="NATURALO">     2</i>
   <i type="logical" name="LHOLEGF"> F  </i>
   <i type="logical" name="L2ORDER"> F  </i>
   <i type="logical" name="LDMP1"> F  </i>
   <i type="logical" name="LMP2LT"> F  </i>
   <i type="logical" name="LSMP2LT"> F  </i>
   <i type="logical" name="LGWLF"> F  </i>
   <i name="ENCUTGW">     -2.00000000</i>
   <i name="ENCUTGWSOFT">     -2.00000000</i>
   <i name="ENCUTLF">     -1.00000000</i>
   <i type="logical" name="LESF_SPLINES"> F  </i>
   <i type="int" name="LMAXMP2">    -1</i>
   <i name="SCISSOR">      0.00000000</i>
   <i type="int" name="NOMEGA">     0</i>
   <i type="int" name="NOMEGAR">     0</i>
   <i type="int" name="NBANDSGW">    -1</i>
   <i type="int" name="NBANDSO">    -1</i>
   <i type="int" name="NBANDSV">    -1</i>
   <i type="int" name="NELM">    60</i>
   <i type="int" name="NELMHF">     1</i>
   <i type="int" name="DIM">     3</i>
   <i type="int" name="IESPILON">     4</i>
   <i type="int" name="ANTIRES">     0</i>
   <i name="OMEGAMAX">    -30.00000000</i>
   <i name="OMEGAMIN">    -30.00000000</i>
   <i name="OMEGATL">   -200.00000000</i>
   <i type="int" name="OMEGAGRID">     0</i>
   <i name="CSHIFT">     -0.10000000</i>
   <i type="logical" name="LSELFENERGY"> F  </i>
   <i type="logical" name="LSPECTRAL"> F  </i>
   <i type="logical" name="LSPECTRALGW"> F  </i>
   <i type="logical" name="LSINGLES"> F  </i>
   <i type="logical" name="LFERMIGW"> F  </i>
   <i type="logical" name="ODDONLYGW"> F  </i>
   <i type="logical" name="EVENONLYGW"> F  </i>
   <i type="int" name="NKREDLFX">     1</i>
   <i type="int" name="NKREDLFY">     1</i>
   <i type="int" name="NKREDLFZ">     1</i>
   <i type="int" name="MAXMEM">  2800</i>
   <i type="int" name="TELESCOPE">     0</i>
   <i type="int" name="NTAUPAR">    -1</i>
   <i type="int" name="NOMEGAPAR">    -1</i>
   <i name="DAMP_NEWTON">      0.80000001</i>
   <i name="LAMBDA">      1.00000000</i>
  </separator>
  <separator name="External order field" >
   <i name="OFIELD_KAPPA">      0.00000000</i>
   <v name="OFIELD_K">      0.00000000      0.00000000      0.00000000</v>
   <i name="OFIELD_Q6_NEAR">      0.00000000</i>
   <i name="OFIELD_Q6_FAR">      0.00000000</i>
   <i name="OFIELD_A">      0.00000000</i>
  </separator>
 </parameters>
 <atominfo>
  <atoms>       1 </atoms>
  <types>       1 </types>
  <array name="atoms" >
   <dimension dim="1">ion</dimension>
   <field type="string">element</field>
   <field type="int">atomtype</field>
   <set>
    <rc><c>Pt</c><c>   1</c></rc>
   </set>
  </array>
  <array name="atomtypes" >
   <dimension dim="1">type</dimension>
   <field type="int">atomspertype</field>
   <field type="string">element</field>
   <field>mass</field>
   <field>valence</field>
   <field type="string">pseudopotential</field>
   <set>
    <rc><c>   1</c><c>Pt</c><c>    195.08000000</c><c>     10.00000000</c><c>  PAW_PBE Pt 04Feb2005                  </c></rc>
   </set>
  </array>
 </atominfo>
 <structure name="initialpos" >
  <crystal>
   <varray name="basis" >
    <v>       2.61017100       0.00000500       1.50699800 </v>
    <v>       0.87006300       2.46089000       1.50699800 </v>
    <v>       0.00000700       0.00000500       3.01397300 </v>
   </varray>
   <i name="volume">     19.35973233 </i>
   <varray name="rec_basis" >
    <v>       0.38311731      -0.13545310      -0.00000067 </v>
    <v>      -0.00000039       0.40635760      -0.00000067 </v>
    <v>      -0.19155992      -0.13545328       0.33178865 </v>
   </varray>
  </crystal>
  <varray name="positions" >
   <v>       0.00000000       0.00000000       0.00000000 </v>
  </varray>
 </structure>
 <calculation>
  <scstep>
   <time name="dav">    0.44    0.45</time>
   <time name="total">    0.45    0.46</time>
   <energy>
    <i name="alphaZ">     49.10102338 </i>
    <i name="ewald">   -774.46044163 </i>
    <i name="hartreedc">    -94.99536234 </i>
    <i name="XCdc">      2.53411286 </i>
    <i name="pawpsdc">    696.70595042 </i>
    <i name="pawaedc">   -667.45827301 </i>
    <i name="eentropy">     -0.00138140 </i>
    <i name="bandstr">     91.91536540 </i>
    <i name="atom">    728.31920932 </i>
    <i name="e_fr_energy">     31.66020300 </i>
    <i name="e_wo_entrp">     31.66158440 </i>
    <i name="e_0_energy">     31.66089370 </i>
   </energy>
  </scstep>
  <scstep>
   <time name="dav">    0.50    0.50</time>
   <time name="total">    0.50    0.50</time>
   <energy>
    <i name="e_fr_energy">     -5.01813182 </i>
    <i name="e_wo_entrp">     -5.01580030 </i>
    <i name="e_0_energy">     -5.01696606 </i>
   </energy>
  </scstep>
  <scstep>
   <time name="dav">    0.47    0.47</time>
   <time name="total">    0.47    0.47</time>
   <energy>
    <i name="e_fr_energy">     -5.49114790 </i>
    <i name="e_wo_entrp">     -5.48866955 </i>
    <i name="e_0_energy">     -5.48990873 </i>
   </energy>
  </scstep>
  <scstep>
   <time name="dav">    0.46    0.47</time>
   <time name="total">    0.46    0.47</time>
   <energy>
    <i name="e_fr_energy">     -5.49333382 </i>
    <i name="e_wo_entrp">     -5.49085328 </i>
    <i name="e_0_energy">     -5.49209355 </i>
   </energy>
  </scstep>
  <scstep>
   <time name="dav">    0.47    0.47</time>
   <time name="total">    0.48    0.48</time>
   <energy>
    <i name="e_fr_energy">     -5.49335578 </i>
    <i name="e_wo_entrp">     -5.49087519 </i>
    <i name="e_0_energy">     -5.49211549 </i>
   </energy>
  </scstep>
  <scstep>
   <time name="dav">    0.43    0.43</time>
   <time name="total">    0.45    0.45</time>
   <energy>
    <i name="e_fr_energy">     -5.18159020 </i>
    <i name="e_wo_entrp">     -5.17807583 </i>
    <i name="e_0_energy">     -5.17983302 </i>
   </energy>
  </scstep>
  <scstep>
   <time name="dav">    0.46    0.46</time>
   <time name="total">    0.48    0.48</time>
   <energy>
    <i name="e_fr_energy">     -5.17324386 </i>
    <i name="e_wo_entrp">     -5.16974187 </i>
    <i name="e_0_energy">     -5.17149286 </i>
   </energy>
  </scstep>
  <scstep>
   <time name="dav">    0.43    0.43</time>
   <time name="total">    0.45    0.45</time>
   <energy>
    <i name="e_fr_energy">     -5.17279069 </i>
    <i name="e_wo_entrp">     -5.16930222 </i>
    <i name="e_0_energy">     -5.17104646 </i>
   </energy>
  </scstep>
  <scstep>
   <time name="dav">    0.36    0.36</time>
   <time name="total">    0.37    0.37</time>
   <energy>
    <i name="alphaZ">     49.10102338 </i>
    <i name="ewald">   -774.46044163 </i>
    <i name="hartreedc">    -85.16913572 </i>
    <i name="XCdc">      2.18674453 </i>
    <i name="pawpsdc">    788.86041579 </i>
    <i name="pawaedc">   -761.41339231 </i>
    <i name="eentropy">     -0.00348883 </i>
    <i name="bandstr">     47.40635461 </i>
    <i name="atom">    728.31920932 </i>
    <i name="e_fr_energy">     -5.17271086 </i>
    <i name="e_wo_entrp">     -5.16922203 </i>
    <i name="e_0_energy">     -5.17096645 </i>
   </energy>
  </scstep>
  <structure>
   <crystal>
    <varray name="basis" >
     <v>       2.61017100       0.00000500       1.50699800 </v>
     <v>       0.87006300       2.46089000       1.50699800 </v>
     <v>       0.00000700       0.00000500       3.01397300 </v>
    </varray>
    <i name="volume">     19.35973233 </i>
    <varray name="rec_basis" >
     <v>       0.38311731      -0.13545310      -0.00000067 </v>
     <v>      -0.00000039       0.40635760      -0.00000067 </v>
     <v>      -0.19155992      -0.13545328       0.33178865 </v>
    </varray>
   </crystal>
   <varray name="positions" >
    <v>       0.00000000       0.00000000       0.00000000 </v>
   </varray>
  </structure>
  <varray name="forces" >
   <v>      -0.00000658       0.00000284       0.00000896 </v>
  </varray>
  <energy>
   <i name="e_fr_energy">     -5.17271086 </i>
   <i name="e_wo_entrp">     -5.16922203 </i>
   <i name="e_0_energy">     -5.17096645 </i>
  </energy>
  <time name="totalsc">    4.18    4.20</time>
  <eigenvalues>
   <array>
    <dimension dim="1">band</dimension>
    <dimension dim="2">kpoint</dimension>
    <dimension dim="3">spin</dimension>
    <field>eigene</field>
    <field>occ</field>
    <set>
     <set comment="spin 1">
      <set comment="kpoint 1">
       <r>   -0.4929    1.0000 </r>
       <r>    4.6550    1.0000 </r>
       <r>    4.6551    1.0000 </r>
       <r>    4.6551    1.0000 </r>
       <r>    6.0681    1.0000 </r>
       <r>    6.0681    1.0000 </r>
       <r>   22.1520    0.0000 </r>
       <r>   25.7617    0.0000 </r>
       <r>   25.7620    0.0000 </r>
       <r>   25.7620    0.0000 </r>
       <r>   30.2756    0.0000 </r>
       <r>   34.3718    0.0000 </r>
      </set>
      <set comment="kpoint 2">
       <r>    0.3465    1.0000 </r>
       <r>    4.4365    1.0000 </r>
       <r>    4.8798    1.0000 </r>
       <r>    4.8799    1.0000 </r>
       <r>    6.0173    1.0000 </r>
       <r>    6.0173    1.0000 </r>
       <r>   21.6982    0.0000 </r>
       <r>   23.1585    0.0000 </r>
       <r>   26.6249    0.0000 </r>
       <r>   26.6251    0.0000 </r>
       <r>   29.1816    0.0000 </r>
       <r>   31.2109    0.0000 </r>
      </set>
      <set comment="kpoint 3">
       <r>    0.3465    1.0000 </r>
       <r>    4.4365    1.0000 </r>
       <r>    4.8798    1.0000 </r>
       <r>    4.8799    1.0000 </r>
       <r>    6.0173    1.0000 </r>
       <r>    6.0173    1.0000 </r>
       <r>   21.6982    0.0000 </r>
       <r>   23.1585    0.0000 </r>
       <r>   26.6249    0.0000 </r>
       <r>   26.6251    0.0000 </r>
       <r>   29.1816    0.0000 </r>
       <r>   31.2108    0.0000 </r>
      </set>
      <set comment="kpoint 4">
       <r>    0.3465    1.0000 </r>
       <r>    4.4365    1.0000 </r>
       <r>    4.8798    1.0000 </r>
       <r>    4.8799    1.0000 </r>
       <r>    6.0173    1.0000 </r>
       <r>    6.0173    1.0000 </r>
       <r>   21.6982    0.0000 </r>
       <r>   23.1585    0.0000 </r>
       <r>   26.6249    0.0000 </r>
       <r>   26.6251    0.0000 </r>
       <r>   29.1816    0.0000 </r>
       <r>   31.2107    0.0000 </r>
      </set>
      <set comment="kpoint 5">
       <r>    0.3464    1.0000 </r>
       <r>    4.4365    1.0000 </r>
       <r>    4.8798    1.0000 </r>
       <r>    4.8798    1.0000 </r>
       <r>    6.0173    1.0000 </r>
       <r>    6.0173    1.0000 </r>
       <r>   21.6980    0.0000 </r>
       <r>   23.1585    0.0000 </r>
       <r>   26.6251    0.0000 </r>
       <r>   26.6251    0.0000 </r>
       <r>   29.1816    0.0000 </r>
       <r>   31.2108    0.0000 </r>
      </set>
      <set comment="kpoint 6">
       <r>    1.8540    1.0000 </r>
       <r>    4.8031    1.0000 </r>
       <r>    4.8032    1.0000 </r>
       <r>    5.1166    1.0000 </r>
       <r>    6.6140    1.0000 </r>
       <r>    6.6141    1.0000 </r>
       <r>   15.7731    0.0000 </r>
       <r>   22.4684    0.0000 </r>
       <r>   25.8432    0.0000 </r>
       <r>   25.8433    0.0000 </r>
       <r>   29.9269    0.0000 </r>
       <r>   30.3375    0.0000 </r>
      </set>
      <set comment="kpoint 7">
       <r>    1.8541    1.0000 </r>
       <r>    4.8031    1.0000 </r>
       <r>    4.8032    1.0000 </r>
       <r>    5.1166    1.0000 </r>
       <r>    6.6140    1.0000 </r>
       <r>    6.6141    1.0000 </r>
       <r>   15.7731    0.0000 </r>
       <r>   22.4683    0.0000 </r>
       <r>   25.8432    0.0000 </r>
       <r>   25.8433    0.0000 </r>
       <r>   29.9269    0.0000 </r>
       <r>   30.3375    0.0000 </r>
      </set>
      <set comment="kpoint 8">
       <r>    1.8541    1.0000 </r>
       <r>    4.8031    1.0000 </r>
       <r>    4.8032    1.0000 </r>
       <r>    5.1166    1.0000 </r>
       <r>    6.6140    1.0000 </r>
       <r>    6.6141    1.0000 </r>
       <r>   15.7731    0.0000 </r>
       <r>   22.4683    0.0000 </r>
       <r>   25.8432    0.0000 </r>
       <r>   25.8433    0.0000 </r>
       <r>   29.9269    0.0000 </r>
       <r>   30.3375    0.0000 </r>
      </set>
      <set comment="kpoint 9">
       <r>    1.8540    1.0000 </r>
       <r>    4.8031    1.0000 </r>
       <r>    4.8031    1.0000 </r>
       <r>    5.1165    1.0000 </r>
       <r>    6.6141    1.0000 </r>
       <r>    6.6141    1.0000 </r>
       <r>   15.7729    0.0000 </r>
       <r>   22.4684    0.0000 </r>
       <r>   25.8434    0.0000 </r>
       <r>   25.8434    0.0000 </r>
       <r>   29.9269    0.0000 </r>
       <r>   30.3376    0.0000 </r>
      </set>
      <set comment="kpoint 10">
       <r>    2.1065    1.0000 </r>
       <r>    4.6317    1.0000 </r>
       <r>    4.6318    1.0000 </r>
       <r>    7.1529    0.5944 </r>
       <r>    7.1530    0.5940 </r>
       <r>    7.6950    0.0000 </r>
       <r>   11.3820    0.0000 </r>
       <r>   21.6624    0.0000 </r>
       <r>   24.3073    0.0000 </r>
       <r>   24.3074    0.0000 </r>
       <r>   31.5676    0.0000 </r>
       <r>   31.5676    0.0000 </r>
      </set>
      <set comment="kpoint 11">
       <r>    2.1065    1.0000 </r>
       <r>    4.6317    1.0000 </r>
       <r>    4.6318    1.0000 </r>
       <r>    7.1529    0.5944 </r>
       <r>    7.1530    0.5940 </r>
       <r>    7.6950    0.0000 </r>
       <r>   11.3820    0.0000 </r>
       <r>   21.6623    0.0000 </r>
       <r>   24.3073    0.0000 </r>
       <r>   24.3074    0.0000 </r>
       <r>   31.5676    0.0000 </r>
       <r>   31.5676    0.0000 </r>
      </set>
      <set comment="kpoint 12">
       <r>    2.1065    1.0000 </r>
       <r>    4.6317    1.0000 </r>
       <r>    4.6318    1.0000 </r>
       <r>    7.1529    0.5944 </r>
       <r>    7.1530    0.5940 </r>
       <r>    7.6950    0.0000 </r>
       <r>   11.3820    0.0000 </r>
       <r>   21.6623    0.0000 </r>
       <r>   24.3073    0.0000 </r>
       <r>   24.3074    0.0000 </r>
       <r>   31.5676    0.0000 </r>
       <r>   31.5676    0.0000 </r>
      </set>
      <set comment="kpoint 13">
       <r>    2.1065    1.0000 </r>
       <r>    4.6318    1.0000 </r>
       <r>    4.6318    1.0000 </r>
       <r>    7.1529    0.5943 </r>
       <r>    7.1529    0.5943 </r>
       <r>    7.6950    0.0000 </r>
       <r>   11.3818    0.0000 </r>
       <r>   21.6624    0.0000 </r>
       <r>   24.3075    0.0000 </r>
       <r>   24.3075    0.0000 </r>
       <r>   31.5677    0.0000 </r>
       <r>   31.5677    0.0000 </r>
      </set>
      <set comment="kpoint 14">
       <r>    0.6362    1.0000 </r>
       <r>    4.1086    1.0000 </r>
       <r>    5.1715    1.0000 </r>
       <r>    5.1716    1.0000 </r>
       <r>    5.5104    1.0000 </r>
       <r>    6.3152    1.0000 </r>
       <r>   23.4433    0.0000 </r>
       <r>   23.9239    0.0000 </r>
       <r>   24.2999    0.0000 </r>
       <r>   24.3001    0.0000 </r>
       <r>   28.4277    0.0000 </r>
       <r>   31.4888    0.0000 </r>
      </set>
      <set comment="kpoint 15">
       <r>    0.6362    1.0000 </r>
       <r>    4.1086    1.0000 </r>
       <r>    5.1715    1.0000 </r>
       <r>    5.1716    1.0000 </r>
       <r>    5.5104    1.0000 </r>
       <r>    6.3152    1.0000 </r>
       <r>   23.4433    0.0000 </r>
       <r>   23.9239    0.0000 </r>
       <r>   24.2999    0.0000 </r>
       <r>   24.3001    0.0000 </r>
       <r>   28.4277    0.0000 </r>
       <r>   31.4889    0.0000 </r>
      </set>
      <set comment="kpoint 16">
       <r>    0.6362    1.0000 </r>
       <r>    4.1086    1.0000 </r>
       <r>    5.1715    1.0000 </r>
       <r>    5.1716    1.0000 </r>
       <r>    5.5104    1.0000 </r>
       <r>    6.3152    1.0000 </r>
       <r>   23.4433    0.0000 </r>
       <r>   23.9239    0.0000 </r>
       <r>   24.2999    0.0000 </r>
       <r>   24.3001    0.0000 </r>
       <r>   28.4277    0.0000 </r>
       <r>   31.4889    0.0000 </r>
      </set>
      <set comment="kpoint 17">
       <r>    2.1071    1.0000 </r>
       <r>    3.8847    1.0000 </r>
       <r>    4.7658    1.0000 </r>
       <r>    5.3945    1.0000 </r>
       <r>    6.5213    1.0000 </r>
       <r>    6.7977    1.0000 </r>
       <r>   18.1685    0.0000 </r>
       <r>   22.7831    0.0000 </r>
       <r>   23.2210    0.0000 </r>
       <r>   24.6113    0.0000 </r>
       <r>   28.3060    0.0000 </r>
       <r>   31.5745    0.0000 </r>
      </set>
      <set comment="kpoint 18">
       <r>    2.1071    1.0000 </r>
       <r>    3.8847    1.0000 </r>
       <r>    4.7658    1.0000 </r>
       <r>    5.3945    1.0000 </r>
       <r>    6.5213    1.0000 </r>
       <r>    6.7977    1.0000 </r>
       <r>   18.1685    0.0000 </r>
       <r>   22.7831    0.0000 </r>
       <r>   23.2210    0.0000 </r>
       <r>   24.6113    0.0000 </r>
       <r>   28.3060    0.0000 </r>
       <r>   31.5745    0.0000 </r>
      </set>
      <set comment="kpoint 19">
       <r>    2.1071    1.0000 </r>
       <r>    3.8847    1.0000 </r>
       <r>    4.7658    1.0000 </r>
       <r>    5.3945    1.0000 </r>
       <r>    6.5213    1.0000 </r>
       <r>    6.7977    1.0000 </r>
       <r>   18.1685    0.0000 </r>
       <r>   22.7831    0.0000 </r>
       <r>   23.2210    0.0000 </r>
       <r>   24.6113    0.0000 </r>
       <r>   28.3060    0.0000 </r>
       <r>   31.5745    0.0000 </r>
      </set>
      <set comment="kpoint 20">
       <r>    2.1071    1.0000 </r>
       <r>    3.8847    1.0000 </r>
       <r>    4.7658    1.0000 </r>
       <r>    5.3946    1.0000 </r>
       <r>    6.5213    1.0000 </r>
       <r>    6.7977    1.0000 </r>
       <r>   18.1685    0.0000 </r>
       <r>   22.7832    0.0000 </r>
       <r>   23.2210    0.0000 </r>
       <r>   24.6114    0.0000 </r>
       <r>   28.3057    0.0000 </r>
       <r>   31.5746    0.0000 </r>
      </set>
      <set comment="kpoint 21">
       <r>    2.1071    1.0000 </r>
       <r>    3.8847    1.0000 </r>
       <r>    4.7658    1.0000 </r>
       <r>    5.3945    1.0000 </r>
       <r>    6.5213    1.0000 </r>
       <r>    6.7977    1.0000 </r>
       <r>   18.1683    0.0000 </r>
       <r>   22.7833    0.0000 </r>
       <r>   23.2210    0.0000 </r>
       <r>   24.6114    0.0000 </r>
       <r>   28.3059    0.0000 </r>
       <r>   31.5746    0.0000 </r>
      </set>
      <set comment="kpoint 22">
       <r>    2.1071    1.0000 </r>
       <r>    3.8847    1.0000 </r>
       <r>    4.7658    1.0000 </r>
       <r>    5.3945    1.0000 </r>
       <r>    6.5213    1.0000 </r>
       <r>    6.7977    1.0000 </r>
       <r>   18.1685    0.0000 </r>
       <r>   22.7831    0.0000 </r>
       <r>   23.2210    0.0000 </r>
       <r>   24.6113    0.0000 </r>
       <r>   28.3060    0.0000 </r>
       <r>   31.5745    0.0000 </r>
      </set>
      <set comment="kpoint 23">
       <r>    2.1071    1.0000 </r>
       <r>    3.8847    1.0000 </r>
       <r>    4.7658    1.0000 </r>
       <r>    5.3946    1.0000 </r>
       <r>    6.5213    1.0000 </r>
       <r>    6.7977    1.0000 </r>
       <r>   18.1685    0.0000 </r>
       <r>   22.7832    0.0000 </r>
       <r>   23.2210    0.0000 </r>
       <r>   24.6114    0.0000 </r>
       <r>   28.3057    0.0000 </r>
       <r>   31.5746    0.0000 </r>
      </set>
      <set comment="kpoint 24">
       <r>    2.1071    1.0000 </r>
       <r>    3.8847    1.0000 </r>
       <r>    4.7658    1.0000 </r>
       <r>    5.3945    1.0000 </r>
       <r>    6.5213    1.0000 </r>
       <r>    6.7977    1.0000 </r>
       <r>   18.1683    0.0000 </r>
       <r>   22.7833    0.0000 </r>
       <r>   23.2210    0.0000 </r>
       <r>   24.6114    0.0000 </r>
       <r>   28.3059    0.0000 </r>
       <r>   31.5746    0.0000 </r>
      </set>
      <set comment="kpoint 25">
       <r>    2.1071    1.0000 </r>
       <r>    3.8847    1.0000 </r>
       <r>    4.7658    1.0000 </r>
       <r>    5.3945    1.0000 </r>
       <r>    6.5213    1.0000 </r>
       <r>    6.7977    1.0000 </r>
       <r>   18.1685    0.0000 </r>
       <r>   22.7831    0.0000 </r>
       <r>   23.2210    0.0000 </r>
       <r>   24.6113    0.0000 </r>
       <r>   28.3060    0.0000 </r>
       <r>   31.5745    0.0000 </r>
      </set>
      <set comment="kpoint 26">
       <r>    2.1071    1.0000 </r>
       <r>    3.8847    1.0000 </r>
       <r>    4.7658    1.0000 </r>
       <r>    5.3946    1.0000 </r>
       <r>    6.5213    1.0000 </r>
       <r>    6.7977    1.0000 </r>
       <r>   18.1685    0.0000 </r>
       <r>   22.7832    0.0000 </r>
       <r>   23.2210    0.0000 </r>
       <r>   24.6114    0.0000 </r>
       <r>   28.3057    0.0000 </r>
       <r>   31.5746    0.0000 </r>
      </set>
      <set comment="kpoint 27">
       <r>    2.1071    1.0000 </r>
       <r>    3.8847    1.0000 </r>
       <r>    4.7658    1.0000 </r>
       <r>    5.3945    1.0000 </r>
       <r>    6.5213    1.0000 </r>
       <r>    6.7977    1.0000 </r>
       <r>   18.1683    0.0000 </r>
       <r>   22.7833    0.0000 </r>
       <r>   23.2210    0.0000 </r>
       <r>   24.6114    0.0000 </r>
       <r>   28.3059    0.0000 </r>
       <r>   31.5746    0.0000 </r>
      </set>
      <set comment="kpoint 28">
       <r>    2.1071    1.0000 </r>
       <r>    3.8847    1.0000 </r>
       <r>    4.7658    1.0000 </r>
       <r>    5.3945    1.0000 </r>
       <r>    6.5213    1.0000 </r>
       <r>    6.7977    1.0000 </r>
       <r>   18.1685    0.0000 </r>
       <r>   22.7831    0.0000 </r>
       <r>   23.2210    0.0000 </r>
       <r>   24.6113    0.0000 </r>
       <r>   28.3060    0.0000 </r>
       <r>   31.5745    0.0000 </r>
      </set>
      <set comment="kpoint 29">
       <r>    2.6776    1.0000 </r>
       <r>    4.2820    1.0000 </r>
       <r>    5.1524    1.0000 </r>
       <r>    5.1556    1.0000 </r>
       <r>    7.1914    0.1982 </r>
       <r>    9.3072    0.0000 </r>
       <r>   12.3324    0.0000 </r>
       <r>   21.1064    0.0000 </r>
       <r>   22.5733    0.0000 </r>
       <r>   23.2974    0.0000 </r>
       <r>   31.8429    0.0000 </r>
       <r>   32.3741    0.0000 </r>
      </set>
      <set comment="kpoint 30">
       <r>    2.6776    1.0000 </r>
       <r>    4.2820    1.0000 </r>
       <r>    5.1524    1.0000 </r>
       <r>    5.1556    1.0000 </r>
       <r>    7.1914    0.1982 </r>
       <r>    9.3072    0.0000 </r>
       <r>   12.3324    0.0000 </r>
       <r>   21.1064    0.0000 </r>
       <r>   22.5733    0.0000 </r>
       <r>   23.2974    0.0000 </r>
       <r>   31.8429    0.0000 </r>
       <r>   32.3741    0.0000 </r>
      </set>
      <set comment="kpoint 31">
       <r>    2.6776    1.0000 </r>
       <r>    4.2820    1.0000 </r>
       <r>    5.1524    1.0000 </r>
       <r>    5.1556    1.0000 </r>
       <r>    7.1914    0.1982 </r>
       <r>    9.3072    0.0000 </r>
       <r>   12.3324    0.0000 </r>
       <r>   21.1064    0.0000 </r>
       <r>   22.5733    0.0000 </r>
       <r>   23.2974    0.0000 </r>
       <r>   31.8429    0.0000 </r>
       <r>   32.3741    0.0000 </r>
      </set>
      <set comment="kpoint 32">
       <r>    2.6776    1.0000 </r>
       <r>    4.2820    1.0000 </r>
       <r>    5.1524    1.0000 </r>
       <r>    5.1556    1.0000 </r>
       <r>    7.1914    0.1980 </r>
       <r>    9.3072    0.0000 </r>
       <r>   12.3323    0.0000 </r>
       <r>   21.1062    0.0000 </r>
       <r>   22.5734    0.0000 </r>
       <r>   23.2974    0.0000 </r>
       <r>   31.8429    0.0000 </r>
       <r>   32.3741    0.0000 </r>
      </set>
      <set comment="kpoint 33">
       <r>    2.6776    1.0000 </r>
       <r>    4.2820    1.0000 </r>
       <r>    5.1523    1.0000 </r>
       <r>    5.1556    1.0000 </r>
       <r>    7.1914    0.1983 </r>
       <r>    9.3071    0.0000 </r>
       <r>   12.3322    0.0000 </r>
       <r>   21.1064    0.0000 </r>
       <r>   22.5735    0.0000 </r>
       <r>   23.2975    0.0000 </r>
       <r>   31.8430    0.0000 </r>
       <r>   32.3742    0.0000 </r>
      </set>
      <set comment="kpoint 34">
       <r>    2.6776    1.0000 </r>
       <r>    4.2820    1.0000 </r>
       <r>    5.1524    1.0000 </r>
       <r>    5.1556    1.0000 </r>
       <r>    7.1914    0.1982 </r>
       <r>    9.3072    0.0000 </r>
       <r>   12.3324    0.0000 </r>
       <r>   21.1064    0.0000 </r>
       <r>   22.5733    0.0000 </r>
       <r>   23.2974    0.0000 </r>
       <r>   31.8429    0.0000 </r>
       <r>   32.3741    0.0000 </r>
      </set>
      <set comment="kpoint 35">
       <r>    2.6776    1.0000 </r>
       <r>    4.2820    1.0000 </r>
       <r>    5.1524    1.0000 </r>
       <r>    5.1556    1.0000 </r>
       <r>    7.1914    0.1980 </r>
       <r>    9.3072    0.0000 </r>
       <r>   12.3323    0.0000 </r>
       <r>   21.1062    0.0000 </r>
       <r>   22.5734    0.0000 </r>
       <r>   23.2975    0.0000 </r>
       <r>   31.8429    0.0000 </r>
       <r>   32.3741    0.0000 </r>
      </set>
      <set comment="kpoint 36">
       <r>    2.6776    1.0000 </r>
       <r>    4.2820    1.0000 </r>
       <r>    5.1523    1.0000 </r>
       <r>    5.1556    1.0000 </r>
       <r>    7.1914    0.1983 </r>
       <r>    9.3071    0.0000 </r>
       <r>   12.3322    0.0000 </r>
       <r>   21.1064    0.0000 </r>
       <r>   22.5735    0.0000 </r>
       <r>   23.2975    0.0000 </r>
       <r>   31.8430    0.0000 </r>
       <r>   32.3742    0.0000 </r>
      </set>
      <set comment="kpoint 37">
       <r>    2.6776    1.0000 </r>
       <r>    4.2820    1.0000 </r>
       <r>    5.1524    1.0000 </r>
       <r>    5.1556    1.0000 </r>
       <r>    7.1914    0.1982 </r>
       <r>    9.3072    0.0000 </r>
       <r>   12.3324    0.0000 </r>
       <r>   21.1064    0.0000 </r>
       <r>   22.5733    0.0000 </r>
       <r>   23.2974    0.0000 </r>
       <r>   31.8429    0.0000 </r>
       <r>   32.3741    0.0000 </r>
      </set>
      <set comment="kpoint 38">
       <r>    2.6776    1.0000 </r>
       <r>    4.2820    1.0000 </r>
       <r>    5.1524    1.0000 </r>
       <r>    5.1556    1.0000 </r>
       <r>    7.1914    0.1980 </r>
       <r>    9.3072    0.0000 </r>
       <r>   12.3323    0.0000 </r>
       <r>   21.1062    0.0000 </r>
       <r>   22.5734    0.0000 </r>
       <r>   23.2975    0.0000 </r>
       <r>   31.8429    0.0000 </r>
       <r>   32.3741    0.0000 </r>
      </set>
      <set comment="kpoint 39">
       <r>    2.6776    1.0000 </r>
       <r>    4.2820    1.0000 </r>
       <r>    5.1523    1.0000 </r>
       <r>    5.1556    1.0000 </r>
       <r>    7.1914    0.1983 </r>
       <r>    9.3071    0.0000 </r>
       <r>   12.3322    0.0000 </r>
       <r>   21.1064    0.0000 </r>
       <r>   22.5735    0.0000 </r>
       <r>   23.2975    0.0000 </r>
       <r>   31.8430    0.0000 </r>
       <r>   32.3742    0.0000 </r>
      </set>
      <set comment="kpoint 40">
       <r>    2.6776    1.0000 </r>
       <r>    4.2820    1.0000 </r>
       <r>    5.1524    1.0000 </r>
       <r>    5.1556    1.0000 </r>
       <r>    7.1914    0.1982 </r>
       <r>    9.3072    0.0000 </r>
       <r>   12.3324    0.0000 </r>
       <r>   21.1064    0.0000 </r>
       <r>   22.5733    0.0000 </r>
       <r>   23.2974    0.0000 </r>
       <r>   31.8429    0.0000 </r>
       <r>   32.3741    0.0000 </r>
      </set>
      <set comment="kpoint 41">
       <r>    2.7127    1.0000 </r>
       <r>    4.4024    1.0000 </r>
       <r>    4.9155    1.0000 </r>
       <r>    5.1384    1.0000 </r>
       <r>    6.4638    1.0000 </r>
       <r>    8.4850    0.0000 </r>
       <r>   14.3155    0.0000 </r>
       <r>   20.1684    0.0000 </r>
       <r>   23.3277    0.0000 </r>
       <r>   25.0854    0.0000 </r>
       <r>   29.5778    0.0000 </r>
       <r>   31.9753    0.0000 </r>
      </set>
      <set comment="kpoint 42">
       <r>    2.7127    1.0000 </r>
       <r>    4.4024    1.0000 </r>
       <r>    4.9155    1.0000 </r>
       <r>    5.1384    1.0000 </r>
       <r>    6.4638    1.0000 </r>
       <r>    8.4850    0.0000 </r>
       <r>   14.3155    0.0000 </r>
       <r>   20.1684    0.0000 </r>
       <r>   23.3277    0.0000 </r>
       <r>   25.0854    0.0000 </r>
       <r>   29.5778    0.0000 </r>
       <r>   31.9753    0.0000 </r>
      </set>
      <set comment="kpoint 43">
       <r>    2.7127    1.0000 </r>
       <r>    4.4024    1.0000 </r>
       <r>    4.9155    1.0000 </r>
       <r>    5.1384    1.0000 </r>
       <r>    6.4638    1.0000 </r>
       <r>    8.4850    0.0000 </r>
       <r>   14.3155    0.0000 </r>
       <r>   20.1684    0.0000 </r>
       <r>   23.3277    0.0000 </r>
       <r>   25.0854    0.0000 </r>
       <r>   29.5778    0.0000 </r>
       <r>   31.9753    0.0000 </r>
      </set>
      <set comment="kpoint 44">
       <r>    2.7127    1.0000 </r>
       <r>    4.4024    1.0000 </r>
       <r>    4.9155    1.0000 </r>
       <r>    5.1384    1.0000 </r>
       <r>    6.4638    1.0000 </r>
       <r>    8.4850    0.0000 </r>
       <r>   14.3155    0.0000 </r>
       <r>   20.1682    0.0000 </r>
       <r>   23.3278    0.0000 </r>
       <r>   25.0855    0.0000 </r>
       <r>   29.5779    0.0000 </r>
       <r>   31.9754    0.0000 </r>
      </set>
      <set comment="kpoint 45">
       <r>    2.7127    1.0000 </r>
       <r>    4.4024    1.0000 </r>
       <r>    4.9155    1.0000 </r>
       <r>    5.1384    1.0000 </r>
       <r>    6.4638    1.0000 </r>
       <r>    8.4850    0.0000 </r>
       <r>   14.3153    0.0000 </r>
       <r>   20.1684    0.0000 </r>
       <r>   23.3278    0.0000 </r>
       <r>   25.0856    0.0000 </r>
       <r>   29.5778    0.0000 </r>
       <r>   31.9755    0.0000 </r>
      </set>
      <set comment="kpoint 46">
       <r>    2.7127    1.0000 </r>
       <r>    4.4024    1.0000 </r>
       <r>    4.9155    1.0000 </r>
       <r>    5.1384    1.0000 </r>
       <r>    6.4638    1.0000 </r>
       <r>    8.4850    0.0000 </r>
       <r>   14.3155    0.0000 </r>
       <r>   20.1684    0.0000 </r>
       <r>   23.3277    0.0000 </r>
       <r>   25.0854    0.0000 </r>
       <r>   29.5778    0.0000 </r>
       <r>   31.9753    0.0000 </r>
      </set>
      <set comment="kpoint 47">
       <r>    2.7127    1.0000 </r>
       <r>    4.4024    1.0000 </r>
       <r>    4.9155    1.0000 </r>
       <r>    5.1384    1.0000 </r>
       <r>    6.4638    1.0000 </r>
       <r>    8.4850    0.0000 </r>
       <r>   14.3155    0.0000 </r>
       <r>   20.1682    0.0000 </r>
       <r>   23.3278    0.0000 </r>
       <r>   25.0855    0.0000 </r>
       <r>   29.5778    0.0000 </r>
       <r>   31.9754    0.0000 </r>
      </set>
      <set comment="kpoint 48">
       <r>    2.7127    1.0000 </r>
       <r>    4.4024    1.0000 </r>
       <r>    4.9155    1.0000 </r>
       <r>    5.1384    1.0000 </r>
       <r>    6.4638    1.0000 </r>
       <r>    8.4850    0.0000 </r>
       <r>   14.3153    0.0000 </r>
       <r>   20.1684    0.0000 </r>
       <r>   23.3278    0.0000 </r>
       <r>   25.0856    0.0000 </r>
       <r>   29.5778    0.0000 </r>
       <r>   31.9755    0.0000 </r>
      </set>
      <set comment="kpoint 49">
       <r>    2.7127    1.0000 </r>
       <r>    4.4024    1.0000 </r>
       <r>    4.9155    1.0000 </r>
       <r>    5.1384    1.0000 </r>
       <r>    6.4638    1.0000 </r>
       <r>    8.4850    0.0000 </r>
       <r>   14.3155    0.0000 </r>
       <r>   20.1684    0.0000 </r>
       <r>   23.3277    0.0000 </r>
       <r>   25.0854    0.0000 </r>
       <r>   29.5778    0.0000 </r>
       <r>   31.9753    0.0000 </r>
      </set>
      <set comment="kpoint 50">
       <r>    2.7127    1.0000 </r>
       <r>    4.4024    1.0000 </r>
       <r>    4.9155    1.0000 </r>
       <r>    5.1384    1.0000 </r>
       <r>    6.4638    1.0000 </r>
       <r>    8.4850    0.0000 </r>
       <r>   14.3155    0.0000 </r>
       <r>   20.1682    0.0000 </r>
       <r>   23.3278    0.0000 </r>
       <r>   25.0855    0.0000 </r>
       <r>   29.5778    0.0000 </r>
       <r>   31.9754    0.0000 </r>
      </set>
      <set comment="kpoint 51">
       <r>    2.7127    1.0000 </r>
       <r>    4.4024    1.0000 </r>
       <r>    4.9155    1.0000 </r>
       <r>    5.1384    1.0000 </r>
       <r>    6.4638    1.0000 </r>
       <r>    8.4850    0.0000 </r>
       <r>   14.3153    0.0000 </r>
       <r>   20.1684    0.0000 </r>
       <r>   23.3278    0.0000 </r>
       <r>   25.0856    0.0000 </r>
       <r>   29.5778    0.0000 </r>
       <r>   31.9755    0.0000 </r>
      </set>
      <set comment="kpoint 52">
       <r>    2.7127    1.0000 </r>
       <r>    4.4024    1.0000 </r>
       <r>    4.9155    1.0000 </r>
       <r>    5.1384    1.0000 </r>
       <r>    6.4638    1.0000 </r>
       <r>    8.4850    0.0000 </r>
       <r>   14.3155    0.0000 </r>
       <r>   20.1684    0.0000 </r>
       <r>   23.3277    0.0000 </r>
       <r>   25.0854    0.0000 </r>
       <r>   29.5778    0.0000 </r>
       <r>   31.9753    0.0000 </r>
      </set>
      <set comment="kpoint 53">
       <r>    1.5806    1.0000 </r>
       <r>    4.1097    1.0000 </r>
       <r>    4.8946    1.0000 </r>
       <r>    5.3370    1.0000 </r>
       <r>    5.5485    1.0000 </r>
       <r>    6.8658    1.0000 </r>
       <r>   19.6695    0.0000 </r>
       <r>   21.4106    0.0000 </r>
       <r>   25.4328    0.0000 </r>
       <r>   25.9937    0.0000 </r>
       <r>   29.2449    0.0000 </r>
       <r>   30.4388    0.0000 </r>
      </set>
      <set comment="kpoint 54">
       <r>    1.5806    1.0000 </r>
       <r>    4.1097    1.0000 </r>
       <r>    4.8946    1.0000 </r>
       <r>    5.3370    1.0000 </r>
       <r>    5.5485    1.0000 </r>
       <r>    6.8658    1.0000 </r>
       <r>   19.6695    0.0000 </r>
       <r>   21.4106    0.0000 </r>
       <r>   25.4328    0.0000 </r>
       <r>   25.9937    0.0000 </r>
       <r>   29.2449    0.0000 </r>
       <r>   30.4388    0.0000 </r>
      </set>
      <set comment="kpoint 55">
       <r>    1.5806    1.0000 </r>
       <r>    4.1097    1.0000 </r>
       <r>    4.8946    1.0000 </r>
       <r>    5.3370    1.0000 </r>
       <r>    5.5485    1.0000 </r>
       <r>    6.8658    1.0000 </r>
       <r>   19.6695    0.0000 </r>
       <r>   21.4106    0.0000 </r>
       <r>   25.4328    0.0000 </r>
       <r>   25.9937    0.0000 </r>
       <r>   29.2449    0.0000 </r>
       <r>   30.4388    0.0000 </r>
      </set>
      <set comment="kpoint 56">
       <r>    1.5806    1.0000 </r>
       <r>    4.1097    1.0000 </r>
       <r>    4.8946    1.0000 </r>
       <r>    5.3371    1.0000 </r>
       <r>    5.5486    1.0000 </r>
       <r>    6.8658    1.0000 </r>
       <r>   19.6694    0.0000 </r>
       <r>   21.4105    0.0000 </r>
       <r>   25.4328    0.0000 </r>
       <r>   25.9938    0.0000 </r>
       <r>   29.2450    0.0000 </r>
       <r>   30.4390    0.0000 </r>
      </set>
      <set comment="kpoint 57">
       <r>    1.5806    1.0000 </r>
       <r>    4.1097    1.0000 </r>
       <r>    4.8946    1.0000 </r>
       <r>    5.3371    1.0000 </r>
       <r>    5.5486    1.0000 </r>
       <r>    6.8658    1.0000 </r>
       <r>   19.6694    0.0000 </r>
       <r>   21.4105    0.0000 </r>
       <r>   25.4328    0.0000 </r>
       <r>   25.9938    0.0000 </r>
       <r>   29.2450    0.0000 </r>
       <r>   30.4390    0.0000 </r>
      </set>
      <set comment="kpoint 58">
       <r>    1.5806    1.0000 </r>
       <r>    4.1097    1.0000 </r>
       <r>    4.8946    1.0000 </r>
       <r>    5.3371    1.0000 </r>
       <r>    5.5486    1.0000 </r>
       <r>    6.8658    1.0000 </r>
       <r>   19.6694    0.0000 </r>
       <r>   21.4105    0.0000 </r>
       <r>   25.4328    0.0000 </r>
       <r>   25.9938    0.0000 </r>
       <r>   29.2450    0.0000 </r>
       <r>   30.4390    0.0000 </r>
      </set>
      <set comment="kpoint 59">
       <r>    2.5076    1.0000 </r>
       <r>    3.1675    1.0000 </r>
       <r>    5.9310    1.0000 </r>
       <r>    6.4998    1.0000 </r>
       <r>    6.4998    1.0000 </r>
       <r>    6.8429    1.0000 </r>
       <r>   19.5856    0.0000 </r>
       <r>   19.9893    0.0000 </r>
       <r>   19.9894    0.0000 </r>
       <r>   23.8185    0.0000 </r>
       <r>   25.8010    0.0000 </r>
       <r>   34.6495    0.0000 </r>
      </set>
      <set comment="kpoint 60">
       <r>    2.5076    1.0000 </r>
       <r>    3.1675    1.0000 </r>
       <r>    5.9310    1.0000 </r>
       <r>    6.4998    1.0000 </r>
       <r>    6.4998    1.0000 </r>
       <r>    6.8429    1.0000 </r>
       <r>   19.5856    0.0000 </r>
       <r>   19.9893    0.0000 </r>
       <r>   19.9895    0.0000 </r>
       <r>   23.8185    0.0000 </r>
       <r>   25.8010    0.0000 </r>
       <r>   34.6496    0.0000 </r>
      </set>
      <set comment="kpoint 61">
       <r>    2.5076    1.0000 </r>
       <r>    3.1675    1.0000 </r>
       <r>    5.9310    1.0000 </r>
       <r>    6.4998    1.0000 </r>
       <r>    6.4998    1.0000 </r>
       <r>    6.8429    1.0000 </r>
       <r>   19.5856    0.0000 </r>
       <r>   19.9893    0.0000 </r>
       <r>   19.9894    0.0000 </r>
       <r>   23.8185    0.0000 </r>
       <r>   25.8010    0.0000 </r>
       <r>   34.6496    0.0000 </r>
      </set>
      <set comment="kpoint 62">
       <r>    2.8131    1.0000 </r>
       <r>    3.2274    1.0000 </r>
       <r>    5.6961    1.0000 </r>
       <r>    6.4146    1.0000 </r>
       <r>    7.2835    0.0003 </r>
       <r>    9.7019    0.0000 </r>
       <r>   14.4603    0.0000 </r>
       <r>   17.5303    0.0000 </r>
       <r>   19.3759    0.0000 </r>
       <r>   24.9235    0.0000 </r>
       <r>   28.2710    0.0000 </r>
       <r>   33.3211    0.0000 </r>
      </set>
      <set comment="kpoint 63">
       <r>    2.8131    1.0000 </r>
       <r>    3.2274    1.0000 </r>
       <r>    5.6961    1.0000 </r>
       <r>    6.4146    1.0000 </r>
       <r>    7.2835    0.0003 </r>
       <r>    9.7019    0.0000 </r>
       <r>   14.4603    0.0000 </r>
       <r>   17.5303    0.0000 </r>
       <r>   19.3759    0.0000 </r>
       <r>   24.9235    0.0000 </r>
       <r>   28.2710    0.0000 </r>
       <r>   33.3211    0.0000 </r>
      </set>
      <set comment="kpoint 64">
       <r>    2.8131    1.0000 </r>
       <r>    3.2274    1.0000 </r>
       <r>    5.6961    1.0000 </r>
       <r>    6.4146    1.0000 </r>
       <r>    7.2835    0.0003 </r>
       <r>    9.7019    0.0000 </r>
       <r>   14.4603    0.0000 </r>
       <r>   17.5303    0.0000 </r>
       <r>   19.3759    0.0000 </r>
       <r>   24.9235    0.0000 </r>
       <r>   28.2710    0.0000 </r>
       <r>   33.3211    0.0000 </r>
      </set>
      <set comment="kpoint 65">
       <r>    2.8131    1.0000 </r>
       <r>    3.2275    1.0000 </r>
       <r>    5.6961    1.0000 </r>
       <r>    6.4146    1.0000 </r>
       <r>    7.2835    0.0003 </r>
       <r>    9.7019    0.0000 </r>
       <r>   14.4602    0.0000 </r>
       <r>   17.5302    0.0000 </r>
       <r>   19.3760    0.0000 </r>
       <r>   24.9236    0.0000 </r>
       <r>   28.2708    0.0000 </r>
       <r>   33.3212    0.0000 </r>
      </set>
      <set comment="kpoint 66">
       <r>    2.8131    1.0000 </r>
       <r>    3.2275    1.0000 </r>
       <r>    5.6961    1.0000 </r>
       <r>    6.4146    1.0000 </r>
       <r>    7.2834    0.0003 </r>
       <r>    9.7018    0.0000 </r>
       <r>   14.4602    0.0000 </r>
       <r>   17.5302    0.0000 </r>
       <r>   19.3761    0.0000 </r>
       <r>   24.9237    0.0000 </r>
       <r>   28.2708    0.0000 </r>
       <r>   33.3212    0.0000 </r>
      </set>
      <set comment="kpoint 67">
       <r>    2.8131    1.0000 </r>
       <r>    3.2274    1.0000 </r>
       <r>    5.6961    1.0000 </r>
       <r>    6.4146    1.0000 </r>
       <r>    7.2835    0.0003 </r>
       <r>    9.7019    0.0000 </r>
       <r>   14.4603    0.0000 </r>
       <r>   17.5303    0.0000 </r>
       <r>   19.3759    0.0000 </r>
       <r>   24.9235    0.0000 </r>
       <r>   28.2710    0.0000 </r>
       <r>   33.3211    0.0000 </r>
      </set>
      <set comment="kpoint 68">
       <r>    2.8130    1.0000 </r>
       <r>    3.2275    1.0000 </r>
       <r>    5.6961    1.0000 </r>
       <r>    6.4146    1.0000 </r>
       <r>    7.2835    0.0003 </r>
       <r>    9.7019    0.0000 </r>
       <r>   14.4602    0.0000 </r>
       <r>   17.5302    0.0000 </r>
       <r>   19.3760    0.0000 </r>
       <r>   24.9236    0.0000 </r>
       <r>   28.2708    0.0000 </r>
       <r>   33.3212    0.0000 </r>
      </set>
      <set comment="kpoint 69">
       <r>    2.8131    1.0000 </r>
       <r>    3.2275    1.0000 </r>
       <r>    5.6961    1.0000 </r>
       <r>    6.4146    1.0000 </r>
       <r>    7.2834    0.0003 </r>
       <r>    9.7018    0.0000 </r>
       <r>   14.4602    0.0000 </r>
       <r>   17.5302    0.0000 </r>
       <r>   19.3761    0.0000 </r>
       <r>   24.9237    0.0000 </r>
       <r>   28.2708    0.0000 </r>
       <r>   33.3212    0.0000 </r>
      </set>
      <set comment="kpoint 70">
       <r>    2.8131    1.0000 </r>
       <r>    3.2274    1.0000 </r>
       <r>    5.6961    1.0000 </r>
       <r>    6.4146    1.0000 </r>
       <r>    7.2835    0.0003 </r>
       <r>    9.7019    0.0000 </r>
       <r>   14.4603    0.0000 </r>
       <r>   17.5303    0.0000 </r>
       <r>   19.3759    0.0000 </r>
       <r>   24.9235    0.0000 </r>
       <r>   28.2710    0.0000 </r>
       <r>   33.3211    0.0000 </r>
      </set>
      <set comment="kpoint 71">
       <r>    2.8131    1.0000 </r>
       <r>    3.2275    1.0000 </r>
       <r>    5.6961    1.0000 </r>
       <r>    6.4146    1.0000 </r>
       <r>    7.2835    0.0003 </r>
       <r>    9.7019    0.0000 </r>
       <r>   14.4602    0.0000 </r>
       <r>   17.5302    0.0000 </r>
       <r>   19.3760    0.0000 </r>
       <r>   24.9236    0.0000 </r>
       <r>   28.2708    0.0000 </r>
       <r>   33.3212    0.0000 </r>
      </set>
      <set comment="kpoint 72">
       <r>    2.8131    1.0000 </r>
       <r>    3.2275    1.0000 </r>
       <r>    5.6961    1.0000 </r>
       <r>    6.4146    1.0000 </r>
       <r>    7.2834    0.0003 </r>
       <r>    9.7018    0.0000 </r>
       <r>   14.4602    0.0000 </r>
       <r>   17.5302    0.0000 </r>
       <r>   19.3761    0.0000 </r>
       <r>   24.9237    0.0000 </r>
       <r>   28.2708    0.0000 </r>
       <r>   33.3212    0.0000 </r>
      </set>
      <set comment="kpoint 73">
       <r>    2.8131    1.0000 </r>
       <r>    3.2274    1.0000 </r>
       <r>    5.6961    1.0000 </r>
       <r>    6.4146    1.0000 </r>
       <r>    7.2835    0.0003 </r>
       <r>    9.7019    0.0000 </r>
       <r>   14.4603    0.0000 </r>
       <r>   17.5303    0.0000 </r>
       <r>   19.3759    0.0000 </r>
       <r>   24.9235    0.0000 </r>
       <r>   28.2710    0.0000 </r>
       <r>   33.3211    0.0000 </r>
      </set>
      <set comment="kpoint 74">
       <r>    3.2635    1.0000 </r>
       <r>    3.9851    1.0000 </r>
       <r>    4.7700    1.0000 </r>
       <r>    5.9549    1.0000 </r>
       <r>    6.7363    1.0000 </r>
       <r>   10.7701    0.0000 </r>
       <r>   14.5177    0.0000 </r>
       <r>   15.1309    0.0000 </r>
       <r>   21.6918    0.0000 </r>
       <r>   24.3250    0.0000 </r>
       <r>   31.9693    0.0000 </r>
       <r>   32.4037    0.0000 </r>
      </set>
      <set comment="kpoint 75">
       <r>    3.2635    1.0000 </r>
       <r>    3.9851    1.0000 </r>
       <r>    4.7700    1.0000 </r>
       <r>    5.9549    1.0000 </r>
       <r>    6.7363    1.0000 </r>
       <r>   10.7701    0.0000 </r>
       <r>   14.5177    0.0000 </r>
       <r>   15.1309    0.0000 </r>
       <r>   21.6918    0.0000 </r>
       <r>   24.3250    0.0000 </r>
       <r>   31.9693    0.0000 </r>
       <r>   32.4038    0.0000 </r>
      </set>
      <set comment="kpoint 76">
       <r>    3.2635    1.0000 </r>
       <r>    3.9851    1.0000 </r>
       <r>    4.7700    1.0000 </r>
       <r>    5.9549    1.0000 </r>
       <r>    6.7363    1.0000 </r>
       <r>   10.7701    0.0000 </r>
       <r>   14.5177    0.0000 </r>
       <r>   15.1309    0.0000 </r>
       <r>   21.6918    0.0000 </r>
       <r>   24.3250    0.0000 </r>
       <r>   31.9693    0.0000 </r>
       <r>   32.4037    0.0000 </r>
      </set>
      <set comment="kpoint 77">
       <r>    3.2634    1.0000 </r>
       <r>    3.9851    1.0000 </r>
       <r>    4.7700    1.0000 </r>
       <r>    5.9549    1.0000 </r>
       <r>    6.7363    1.0000 </r>
       <r>   10.7700    0.0000 </r>
       <r>   14.5177    0.0000 </r>
       <r>   15.1309    0.0000 </r>
       <r>   21.6920    0.0000 </r>
       <r>   24.3252    0.0000 </r>
       <r>   31.9693    0.0000 </r>
       <r>   32.4039    0.0000 </r>
      </set>
      <set comment="kpoint 78">
       <r>    3.2634    1.0000 </r>
       <r>    3.9851    1.0000 </r>
       <r>    4.7700    1.0000 </r>
       <r>    5.9549    1.0000 </r>
       <r>    6.7363    1.0000 </r>
       <r>   10.7700    0.0000 </r>
       <r>   14.5177    0.0000 </r>
       <r>   15.1309    0.0000 </r>
       <r>   21.6920    0.0000 </r>
       <r>   24.3252    0.0000 </r>
       <r>   31.9693    0.0000 </r>
       <r>   32.4038    0.0000 </r>
      </set>
      <set comment="kpoint 79">
       <r>    3.2634    1.0000 </r>
       <r>    3.9851    1.0000 </r>
       <r>    4.7700    1.0000 </r>
       <r>    5.9549    1.0000 </r>
       <r>    6.7363    1.0000 </r>
       <r>   10.7700    0.0000 </r>
       <r>   14.5177    0.0000 </r>
       <r>   15.1309    0.0000 </r>
       <r>   21.6920    0.0000 </r>
       <r>   24.3252    0.0000 </r>
       <r>   31.9693    0.0000 </r>
       <r>   32.4039    0.0000 </r>
      </set>
      <set comment="kpoint 80">
       <r>    2.4368    1.0000 </r>
       <r>    2.7531    1.0000 </r>
       <r>    7.1262    0.8401 </r>
       <r>    7.4374    0.0000 </r>
       <r>    7.4374    0.0000 </r>
       <r>    9.4728    0.0000 </r>
       <r>   13.7219    0.0000 </r>
       <r>   17.7620    0.0000 </r>
       <r>   17.7622    0.0000 </r>
       <r>   24.4325    0.0000 </r>
       <r>   26.8397    0.0000 </r>
       <r>   34.0677    0.0000 </r>
      </set>
      <set comment="kpoint 81">
       <r>    2.4368    1.0000 </r>
       <r>    2.7531    1.0000 </r>
       <r>    7.1262    0.8400 </r>
       <r>    7.4374    0.0000 </r>
       <r>    7.4374    0.0000 </r>
       <r>    9.4728    0.0000 </r>
       <r>   13.7219    0.0000 </r>
       <r>   17.7620    0.0000 </r>
       <r>   17.7622    0.0000 </r>
       <r>   24.4325    0.0000 </r>
       <r>   26.8397    0.0000 </r>
       <r>   34.0677    0.0000 </r>
      </set>
      <set comment="kpoint 82">
       <r>    2.4368    1.0000 </r>
       <r>    2.7531    1.0000 </r>
       <r>    7.1262    0.8400 </r>
       <r>    7.4374    0.0000 </r>
       <r>    7.4374    0.0000 </r>
       <r>    9.4728    0.0000 </r>
       <r>   13.7219    0.0000 </r>
       <r>   17.7620    0.0000 </r>
       <r>   17.7622    0.0000 </r>
       <r>   24.4325    0.0000 </r>
       <r>   26.8397    0.0000 </r>
       <r>   34.0677    0.0000 </r>
      </set>
      <set comment="kpoint 83">
       <r>    3.3014    1.0000 </r>
       <r>    3.6569    1.0000 </r>
       <r>    4.3205    1.0000 </r>
       <r>    6.1778    1.0000 </r>
       <r>    6.4921    1.0000 </r>
       <r>    8.6667    0.0000 </r>
       <r>   16.3228    0.0000 </r>
       <r>   18.0194    0.0000 </r>
       <r>   20.9992    0.0000 </r>
       <r>   27.1551    0.0000 </r>
       <r>   27.6176    0.0000 </r>
       <r>   32.0864    0.0000 </r>
      </set>
      <set comment="kpoint 84">
       <r>    3.3014    1.0000 </r>
       <r>    3.6569    1.0000 </r>
       <r>    4.3205    1.0000 </r>
       <r>    6.1778    1.0000 </r>
       <r>    6.4921    1.0000 </r>
       <r>    8.6667    0.0000 </r>
       <r>   16.3228    0.0000 </r>
       <r>   18.0194    0.0000 </r>
       <r>   20.9992    0.0000 </r>
       <r>   27.1551    0.0000 </r>
       <r>   27.6176    0.0000 </r>
       <r>   32.0864    0.0000 </r>
      </set>
      <set comment="kpoint 85">
       <r>    3.3014    1.0000 </r>
       <r>    3.6569    1.0000 </r>
       <r>    4.3205    1.0000 </r>
       <r>    6.1778    1.0000 </r>
       <r>    6.4921    1.0000 </r>
       <r>    8.6667    0.0000 </r>
       <r>   16.3228    0.0000 </r>
       <r>   18.0194    0.0000 </r>
       <r>   20.9992    0.0000 </r>
       <r>   27.1551    0.0000 </r>
       <r>   27.6176    0.0000 </r>
       <r>   32.0864    0.0000 </r>
      </set>
      <set comment="kpoint 86">
       <r>    3.3014    1.0000 </r>
       <r>    3.6568    1.0000 </r>
       <r>    4.3205    1.0000 </r>
       <r>    6.1777    1.0000 </r>
       <r>    6.4921    1.0000 </r>
       <r>    8.6667    0.0000 </r>
       <r>   16.3228    0.0000 </r>
       <r>   18.0195    0.0000 </r>
       <r>   20.9991    0.0000 </r>
       <r>   27.1550    0.0000 </r>
       <r>   27.6176    0.0000 </r>
       <r>   32.0863    0.0000 </r>
      </set>
      <set comment="kpoint 87">
       <r>    3.3014    1.0000 </r>
       <r>    3.6569    1.0000 </r>
       <r>    4.3205    1.0000 </r>
       <r>    6.1778    1.0000 </r>
       <r>    6.4921    1.0000 </r>
       <r>    8.6667    0.0000 </r>
       <r>   16.3228    0.0000 </r>
       <r>   18.0194    0.0000 </r>
       <r>   20.9992    0.0000 </r>
       <r>   27.1551    0.0000 </r>
       <r>   27.6176    0.0000 </r>
       <r>   32.0864    0.0000 </r>
      </set>
      <set comment="kpoint 88">
       <r>    3.3014    1.0000 </r>
       <r>    3.6568    1.0000 </r>
       <r>    4.3205    1.0000 </r>
       <r>    6.1777    1.0000 </r>
       <r>    6.4921    1.0000 </r>
       <r>    8.6667    0.0000 </r>
       <r>   16.3228    0.0000 </r>
       <r>   18.0195    0.0000 </r>
       <r>   20.9991    0.0000 </r>
       <r>   27.1550    0.0000 </r>
       <r>   27.6176    0.0000 </r>
       <r>   32.0863    0.0000 </r>
      </set>
      <set comment="kpoint 89">
       <r>    3.3014    1.0000 </r>
       <r>    3.6568    1.0000 </r>
       <r>    4.3205    1.0000 </r>
       <r>    6.1777    1.0000 </r>
       <r>    6.4921    1.0000 </r>
       <r>    8.6667    0.0000 </r>
       <r>   16.3228    0.0000 </r>
       <r>   18.0195    0.0000 </r>
       <r>   20.9991    0.0000 </r>
       <r>   27.1550    0.0000 </r>
       <r>   27.6176    0.0000 </r>
       <r>   32.0863    0.0000 </r>
      </set>
      <set comment="kpoint 90">
       <r>    3.3014    1.0000 </r>
       <r>    3.6568    1.0000 </r>
       <r>    4.3205    1.0000 </r>
       <r>    6.1777    1.0000 </r>
       <r>    6.4921    1.0000 </r>
       <r>    8.6667    0.0000 </r>
       <r>   16.3228    0.0000 </r>
       <r>   18.0195    0.0000 </r>
       <r>   20.9991    0.0000 </r>
       <r>   27.1550    0.0000 </r>
       <r>   27.6176    0.0000 </r>
       <r>   32.0863    0.0000 </r>
      </set>
      <set comment="kpoint 91">
       <r>    3.3014    1.0000 </r>
       <r>    3.6569    1.0000 </r>
       <r>    4.3205    1.0000 </r>
       <r>    6.1778    1.0000 </r>
       <r>    6.4921    1.0000 </r>
       <r>    8.6667    0.0000 </r>
       <r>   16.3228    0.0000 </r>
       <r>   18.0194    0.0000 </r>
       <r>   20.9992    0.0000 </r>
       <r>   27.1551    0.0000 </r>
       <r>   27.6176    0.0000 </r>
       <r>   32.0864    0.0000 </r>
      </set>
      <set comment="kpoint 92">
       <r>    3.3014    1.0000 </r>
       <r>    3.6568    1.0000 </r>
       <r>    4.3205    1.0000 </r>
       <r>    6.1777    1.0000 </r>
       <r>    6.4921    1.0000 </r>
       <r>    8.6667    0.0000 </r>
       <r>   16.3228    0.0000 </r>
       <r>   18.0195    0.0000 </r>
       <r>   20.9991    0.0000 </r>
       <r>   27.1550    0.0000 </r>
       <r>   27.6176    0.0000 </r>
       <r>   32.0863    0.0000 </r>
      </set>
      <set comment="kpoint 93">
       <r>    3.3014    1.0000 </r>
       <r>    3.6568    1.0000 </r>
       <r>    4.3205    1.0000 </r>
       <r>    6.1777    1.0000 </r>
       <r>    6.4921    1.0000 </r>
       <r>    8.6667    0.0000 </r>
       <r>   16.3228    0.0000 </r>
       <r>   18.0195    0.0000 </r>
       <r>   20.9991    0.0000 </r>
       <r>   27.1550    0.0000 </r>
       <r>   27.6176    0.0000 </r>
       <r>   32.0863    0.0000 </r>
      </set>
      <set comment="kpoint 94">
       <r>    3.3014    1.0000 </r>
       <r>    3.6569    1.0000 </r>
       <r>    4.3205    1.0000 </r>
       <r>    6.1778    1.0000 </r>
       <r>    6.4921    1.0000 </r>
       <r>    8.6667    0.0000 </r>
       <r>   16.3228    0.0000 </r>
       <r>   18.0194    0.0000 </r>
       <r>   20.9992    0.0000 </r>
       <r>   27.1551    0.0000 </r>
       <r>   27.6176    0.0000 </r>
       <r>   32.0864    0.0000 </r>
      </set>
      <set comment="kpoint 95">
       <r>    3.5848    1.0000 </r>
       <r>    3.7477    1.0000 </r>
       <r>    4.5251    1.0000 </r>
       <r>    5.8156    1.0000 </r>
       <r>    7.0566    0.9985 </r>
       <r>   11.5502    0.0000 </r>
       <r>   12.4337    0.0000 </r>
       <r>   17.5144    0.0000 </r>
       <r>   19.3722    0.0000 </r>
       <r>   26.4226    0.0000 </r>
       <r>   30.0897    0.0000 </r>
       <r>   34.1791    0.0000 </r>
      </set>
      <set comment="kpoint 96">
       <r>    3.5848    1.0000 </r>
       <r>    3.7477    1.0000 </r>
       <r>    4.5251    1.0000 </r>
       <r>    5.8156    1.0000 </r>
       <r>    7.0566    0.9985 </r>
       <r>   11.5502    0.0000 </r>
       <r>   12.4337    0.0000 </r>
       <r>   17.5144    0.0000 </r>
       <r>   19.3722    0.0000 </r>
       <r>   26.4226    0.0000 </r>
       <r>   30.0897    0.0000 </r>
       <r>   34.1977    0.0000 </r>
      </set>
      <set comment="kpoint 97">
       <r>    3.5848    1.0000 </r>
       <r>    3.7477    1.0000 </r>
       <r>    4.5251    1.0000 </r>
       <r>    5.8156    1.0000 </r>
       <r>    7.0566    0.9985 </r>
       <r>   11.5502    0.0000 </r>
       <r>   12.4337    0.0000 </r>
       <r>   17.5144    0.0000 </r>
       <r>   19.3722    0.0000 </r>
       <r>   26.4226    0.0000 </r>
       <r>   30.0897    0.0000 </r>
       <r>   34.1875    0.0000 </r>
      </set>
      <set comment="kpoint 98">
       <r>    3.5849    1.0000 </r>
       <r>    3.7477    1.0000 </r>
       <r>    4.5250    1.0000 </r>
       <r>    5.8157    1.0000 </r>
       <r>    7.0566    0.9985 </r>
       <r>   11.5501    0.0000 </r>
       <r>   12.4337    0.0000 </r>
       <r>   17.5145    0.0000 </r>
       <r>   19.3723    0.0000 </r>
       <r>   26.4227    0.0000 </r>
       <r>   30.0897    0.0000 </r>
       <r>   34.2218    0.0000 </r>
      </set>
      <set comment="kpoint 99">
       <r>    3.5849    1.0000 </r>
       <r>    3.7477    1.0000 </r>
       <r>    4.5251    1.0000 </r>
       <r>    5.8156    1.0000 </r>
       <r>    7.0566    0.9985 </r>
       <r>   11.5502    0.0000 </r>
       <r>   12.4338    0.0000 </r>
       <r>   17.5144    0.0000 </r>
       <r>   19.3722    0.0000 </r>
       <r>   26.4225    0.0000 </r>
       <r>   30.0897    0.0000 </r>
       <r>   34.2144    0.0000 </r>
      </set>
      <set comment="kpoint 100">
       <r>    3.5848    1.0000 </r>
       <r>    3.7477    1.0000 </r>
       <r>    4.5251    1.0000 </r>
       <r>    5.8156    1.0000 </r>
       <r>    7.0566    0.9985 </r>
       <r>   11.5502    0.0000 </r>
       <r>   12.4337    0.0000 </r>
       <r>   17.5144    0.0000 </r>
       <r>   19.3722    0.0000 </r>
       <r>   26.4226    0.0000 </r>
       <r>   30.0897    0.0000 </r>
       <r>   34.1820    0.0000 </r>
      </set>
      <set comment="kpoint 101">
       <r>    3.5849    1.0000 </r>
       <r>    3.7477    1.0000 </r>
       <r>    4.5250    1.0000 </r>
       <r>    5.8157    1.0000 </r>
       <r>    7.0566    0.9985 </r>
       <r>   11.5501    0.0000 </r>
       <r>   12.4337    0.0000 </r>
[...]
       </set>
       <set comment="band 5">
        <r>  0.0073  0.0008  0.0003  0.0001  0.0660  0.0020  0.0822  0.2586  0.5545 </r>
       </set>
       <set comment="band 6">
        <r>  0.5341  0.0303  0.0114  0.0038  0.0453  0.0083  0.0409  0.1439  0.0014 </r>
       </set>
       <set comment="band 7">
        <r>  0.0000  0.0306  0.2628  0.1543  0.0311  0.0668  0.1591  0.0044  0.0236 </r>
       </set>
       <set comment="band 8">
        <r>  0.1130  0.3093  0.1160  0.0387  0.0000  0.1085  0.0572  0.0119  0.0002 </r>
       </set>
       <set comment="band 9">
        <r>  0.0000  0.0693  0.0180  0.2626  0.1495  0.0185  0.0056  0.0552  0.0660 </r>
       </set>
       <set comment="band 10">
        <r>  0.0000  0.0634  0.0539  0.0963  0.0113  0.0029  0.0223  0.0212  0.0387 </r>
       </set>
       <set comment="band 11">
        <r>  0.0011  0.0118  0.0044  0.0015  0.1555  0.0034  0.0720  0.0862  0.0466 </r>
       </set>
       <set comment="band 12">
        <r>  0.0061  0.0575  0.1002  0.0311  0.0011  0.0212  0.1161  0.0410  0.0573 </r>
       </set>
      </set>
      <set comment="kpoint 102">
       <set comment="band 1">
        <r>  0.0720  0.0343  0.0000  0.0171  0.0001  0.2174  0.0691  0.4347  0.0000 </r>
       </set>
       <set comment="band 2">
        <r>  0.0000  0.0106  0.0008  0.0213  0.0080  0.4920  0.0000  0.2460  0.0643 </r>
       </set>
       <set comment="band 3">
        <r>  0.0000  0.0055  0.0773  0.0109  0.0804  0.0248  0.0000  0.0124  0.6435 </r>
       </set>
       <set comment="band 4">
        <r>  0.0067  0.0092  0.0000  0.0046  0.7839  0.0008  0.0257  0.0015  0.0980 </r>
       </set>
       <set comment="band 5">
        <r>  0.0073  0.0008  0.0000  0.0004  0.0279  0.0401  0.8116  0.0802  0.0035 </r>
       </set>
       <set comment="band 6">
        <r>  0.5341  0.0303  0.0000  0.0151  0.0007  0.0529  0.0804  0.1057  0.0001 </r>
       </set>
       <set comment="band 7">
        <r>  0.0000  0.0306  0.3558  0.0613  0.0184  0.0796  0.0000  0.0398  0.1473 </r>
       </set>
       <set comment="band 8">
        <r>  0.1130  0.3093  0.0000  0.1547  0.0798  0.0287  0.0019  0.0574  0.0100 </r>
       </set>
       <set comment="band 9">
        <r>  0.0000  0.0693  0.1420  0.1386  0.0057  0.1623  0.0000  0.0812  0.0456 </r>
       </set>
       <set comment="band 10">
        <r>  0.0000  0.0634  0.0233  0.1269  0.0100  0.0042  0.0000  0.0021  0.0801 </r>
       </set>
       <set comment="band 11">
        <r>  0.0011  0.0118  0.0000  0.0059  0.0615  0.0974  0.0022  0.1949  0.0077 </r>
       </set>
       <set comment="band 12">
        <r>  0.2194  0.0325  0.0001  0.0092  0.1515  0.0005  0.0737  0.0104  0.0053 </r>
       </set>
      </set>
      <set comment="kpoint 103">
       <set comment="band 1">
        <r>  0.0720  0.0000  0.0129  0.0386  0.0006  0.0019  0.2800  0.0730  0.3658 </r>
       </set>
       <set comment="band 2">
        <r>  0.0000  0.0158  0.0127  0.0042  0.2237  0.0746  0.2881  0.1280  0.0960 </r>
       </set>
       <set comment="band 3">
        <r>  0.0000  0.0906  0.0024  0.0008  0.3156  0.1052  0.1915  0.0851  0.0638 </r>
       </set>
       <set comment="band 4">
        <r>  0.0067  0.0000  0.0035  0.0104  0.0868  0.2605  0.0377  0.3823  0.1425 </r>
       </set>
       <set comment="band 5">
        <r>  0.0073  0.0000  0.0003  0.0009  0.1474  0.4421  0.0191  0.2446  0.1101 </r>
       </set>
       <set comment="band 6">
        <r>  0.5341  0.0000  0.0114  0.0341  0.0032  0.0095  0.0815  0.0127  0.1329 </r>
       </set>
       <set comment="band 7">
        <r>  0.0000  0.4383  0.0070  0.0023  0.2005  0.0668  0.0099  0.0044  0.0033 </r>
       </set>
       <set comment="band 8">
        <r>  0.1130  0.0000  0.1160  0.3479  0.0104  0.0311  0.0145  0.0115  0.1103 </r>
       </set>
       <set comment="band 9">
        <r>  0.0000  0.0020  0.2609  0.0870  0.0555  0.0185  0.1242  0.0552  0.0414 </r>
       </set>
       <set comment="band 10">
        <r>  0.0000  0.0162  0.1481  0.0494  0.0088  0.0029  0.0476  0.0212  0.0159 </r>
       </set>
       <set comment="band 11">
        <r>  0.0011  0.0000  0.0044  0.0133  0.0001  0.0003  0.1551  0.1591  0.0491 </r>
       </set>
       <set comment="band 12">
        <r>  0.2603  0.0010  0.0003  0.0117  0.0513  0.0974  0.0240  0.0667  0.0031 </r>
       </set>
      </set>
      <set comment="kpoint 104">
       <set comment="band 1">
        <r>  0.0720  0.0000  0.0129  0.0386  0.0595  0.1785  0.2114  0.1515  0.1204 </r>
       </set>
       <set comment="band 2">
        <r>  0.0000  0.0065  0.0196  0.0065  0.5505  0.1835  0.0430  0.0191  0.0143 </r>
       </set>
       <set comment="band 3">
        <r>  0.0000  0.0235  0.0527  0.0176  0.0836  0.0279  0.3654  0.1624  0.1218 </r>
       </set>
       <set comment="band 4">
        <r>  0.0067  0.0000  0.0035  0.0104  0.0777  0.2332  0.0637  0.4317  0.1034 </r>
       </set>
       <set comment="band 5">
        <r>  0.0073  0.0000  0.0003  0.0009  0.0720  0.2159  0.0822  0.0447  0.5486 </r>
       </set>
       <set comment="band 6">
        <r>  0.5341  0.0000  0.0114  0.0341  0.0357  0.1071  0.0409  0.0452  0.0110 </r>
       </set>
       <set comment="band 7">
        <r>  0.0000  0.0973  0.2628  0.0876  0.0017  0.0006  0.1591  0.0707  0.0530 </r>
       </set>
       <set comment="band 8">
        <r>  0.1130  0.0000  0.1160  0.3479  0.0000  0.0000  0.0572  0.1203  0.0002 </r>
       </set>
       <set comment="band 9">
        <r>  0.0000  0.3259  0.0180  0.0060  0.2137  0.0712  0.0056  0.0025  0.0019 </r>
       </set>
       <set comment="band 10">
        <r>  0.0000  0.1418  0.0539  0.0180  0.0425  0.0142  0.0223  0.0099  0.0074 </r>
       </set>
       <set comment="band 11">
        <r>  0.0011  0.0000  0.0044  0.0133  0.0293  0.0878  0.0720  0.0018  0.1728 </r>
       </set>
       <set comment="band 12">
        <r>  0.1049  0.0377  0.0675  0.0164  0.0207  0.0787  0.0792  0.0260  0.0333 </r>
       </set>
      </set>
      <set comment="kpoint 105">
       <set comment="band 1">
        <r>  0.0720  0.0343  0.0129  0.0043  0.1598  0.0576  0.2801  0.0172  0.2066 </r>
       </set>
       <set comment="band 2">
        <r>  0.0000  0.0106  0.0127  0.0094  0.3166  0.1835  0.2880  0.0191  0.0032 </r>
       </set>
       <set comment="band 3">
        <r>  0.0000  0.0055  0.0024  0.0859  0.0773  0.0279  0.1915  0.1624  0.3020 </r>
       </set>
       <set comment="band 4">
        <r>  0.0067  0.0092  0.0035  0.0012  0.2175  0.5671  0.0377  0.0757  0.0117 </r>
       </set>
       <set comment="band 5">
        <r>  0.0073  0.0008  0.0003  0.0001  0.0081  0.0599  0.0191  0.6268  0.2494 </r>
       </set>
       <set comment="band 6">
        <r>  0.5341  0.0303  0.0114  0.0038  0.0344  0.0192  0.0815  0.0029  0.1017 </r>
       </set>
       <set comment="band 7">
        <r>  0.0000  0.0306  0.0070  0.4100  0.0974  0.0006  0.0099  0.0707  0.1064 </r>
       </set>
       <set comment="band 8">
        <r>  0.1130  0.3093  0.1160  0.0387  0.0829  0.0256  0.0145  0.0170  0.0378 </r>
       </set>
       <set comment="band 9">
        <r>  0.0000  0.0693  0.2609  0.0196  0.0968  0.0712  0.1242  0.0025  0.0001 </r>
       </set>
       <set comment="band 10">
        <r>  0.0000  0.0634  0.1481  0.0021  0.0000  0.0142  0.0476  0.0099  0.0246 </r>
       </set>
       <set comment="band 11">
        <r>  0.0011  0.0118  0.0044  0.0015  0.0214  0.1375  0.1551  0.0219  0.0277 </r>
       </set>
       <set comment="band 12">
        <r>  0.2589  0.0151  0.0007  0.0003  0.0220  0.1206  0.0211  0.0389  0.0395 </r>
       </set>
      </set>
      <set comment="kpoint 106">
       <set comment="band 1">
        <r>  0.0720  0.0343  0.0129  0.0043  0.1663  0.0512  0.2114  0.2789  0.0136 </r>
       </set>
       <set comment="band 2">
        <r>  0.0000  0.0106  0.0196  0.0024  0.4254  0.0746  0.0430  0.1280  0.1393 </r>
       </set>
       <set comment="band 3">
        <r>  0.0000  0.0055  0.0527  0.0356  0.0000  0.1052  0.3654  0.0851  0.2054 </r>
       </set>
       <set comment="band 4">
        <r>  0.0067  0.0092  0.0035  0.0012  0.1755  0.6091  0.0637  0.0558  0.0056 </r>
       </set>
       <set comment="band 5">
        <r>  0.0073  0.0008  0.0003  0.0001  0.0660  0.0020  0.0822  0.2586  0.5545 </r>
       </set>
       <set comment="band 6">
        <r>  0.5341  0.0303  0.0114  0.0038  0.0453  0.0083  0.0409  0.1439  0.0014 </r>
       </set>
       <set comment="band 7">
        <r>  0.0000  0.0306  0.2628  0.1543  0.0311  0.0668  0.1591  0.0044  0.0236 </r>
       </set>
       <set comment="band 8">
        <r>  0.1130  0.3093  0.1160  0.0387  0.0000  0.1085  0.0572  0.0119  0.0002 </r>
       </set>
       <set comment="band 9">
        <r>  0.0000  0.0693  0.0180  0.2625  0.1495  0.0185  0.0056  0.0552  0.0660 </r>
       </set>
       <set comment="band 10">
        <r>  0.0000  0.0634  0.0539  0.0963  0.0113  0.0029  0.0223  0.0212  0.0387 </r>
       </set>
       <set comment="band 11">
        <r>  0.0011  0.0118  0.0044  0.0015  0.1555  0.0034  0.0720  0.0862  0.0466 </r>
       </set>
       <set comment="band 12">
        <r>  0.0802  0.0281  0.0828  0.0249  0.0168  0.0027  0.0966  0.0927  0.0289 </r>
       </set>
      </set>
      <set comment="kpoint 107">
       <set comment="band 1">
        <r>  0.0283  0.0088  0.0132  0.0044  0.4934  0.0151  0.1850  0.0076  0.0617 </r>
       </set>
       <set comment="band 2">
        <r>  0.0000  0.0109  0.0164  0.0055  0.1865  0.0000  0.6295  0.0000  0.0233 </r>
       </set>
       <set comment="band 3">
        <r>  0.0000  0.0332  0.0000  0.0663  0.0429  0.1286  0.0000  0.2571  0.3429 </r>
       </set>
       <set comment="band 4">
        <r>  0.0220  0.0022  0.0033  0.0011  0.0159  0.5911  0.0060  0.2956  0.0020 </r>
       </set>
       <set comment="band 5">
        <r>  0.0000  0.0000  0.0000  0.0000  0.0548  0.1644  0.0000  0.3287  0.4383 </r>
       </set>
       <set comment="band 6">
        <r>  0.0000  0.1672  0.0000  0.3345  0.0130  0.0391  0.0000  0.0782  0.1043 </r>
       </set>
       <set comment="band 7">
        <r>  0.6815  0.0020  0.0030  0.0010  0.0563  0.0235  0.0211  0.0118  0.0070 </r>
       </set>
       <set comment="band 8">
        <r>  0.0000  0.1833  0.2750  0.0917  0.0319  0.0000  0.1076  0.0000  0.0040 </r>
       </set>
       <set comment="band 9">
        <r>  0.0000  0.1195  0.1792  0.0598  0.1696  0.0428  0.0636  0.0214  0.0212 </r>
       </set>
       <set comment="band 10">
        <r>  0.0000  0.0042  0.0064  0.0021  0.1112  0.0000  0.3756  0.0000  0.0139 </r>
       </set>
       <set comment="band 11">
        <r>  0.0966  0.0780  0.1170  0.0390  0.1143  0.0061  0.0428  0.0030  0.0143 </r>
       </set>
       <set comment="band 12">
        <r>  0.0000  0.0040  0.0000  0.0081  0.0096  0.0288  0.0000  0.0575  0.0767 </r>
       </set>
      </set>
      <set comment="kpoint 108">
       <set comment="band 1">
        <r>  0.0283  0.0088  0.0000  0.0175  0.0599  0.4487  0.0224  0.2243  0.0075 </r>
       </set>
       <set comment="band 2">
        <r>  0.0000  0.0109  0.0164  0.0055  0.0466  0.1399  0.0000  0.2798  0.3730 </r>
       </set>
       <set comment="band 3">
        <r>  0.0000  0.0332  0.0498  0.0166  0.0429  0.1286  0.0000  0.2572  0.3429 </r>
       </set>
       <set comment="band 4">
        <r>  0.0220  0.0022  0.0000  0.0044  0.5312  0.0758  0.1992  0.0379  0.0664 </r>
       </set>
       <set comment="band 5">
        <r>  0.0000  0.0000  0.0000  0.0000  0.2191  0.0000  0.7396  0.0000  0.0274 </r>
       </set>
       <set comment="band 6">
        <r>  0.0000  0.1672  0.2509  0.0836  0.0130  0.0391  0.0000  0.0782  0.1043 </r>
       </set>
       <set comment="band 7">
        <r>  0.6815  0.0020  0.0000  0.0040  0.0632  0.0166  0.0237  0.0083  0.0079 </r>
       </set>
       <set comment="band 8">
        <r>  0.0000  0.1833  0.2750  0.0917  0.0080  0.0239  0.0000  0.0478  0.0638 </r>
       </set>
       <set comment="band 9">
        <r>  0.0000  0.1195  0.0000  0.2390  0.0007  0.2117  0.0003  0.1059  0.0001 </r>
       </set>
       <set comment="band 10">
        <r>  0.0000  0.0042  0.0063  0.0021  0.0278  0.0834  0.0000  0.1669  0.2225 </r>
       </set>
       <set comment="band 11">
        <r>  0.0966  0.0780  0.0000  0.1561  0.0559  0.0644  0.0210  0.0321  0.0070 </r>
       </set>
       <set comment="band 12">
        <r>  0.0000  0.0040  0.0061  0.0020  0.0096  0.0288  0.0000  0.0575  0.0767 </r>
       </set>
      </set>
      <set comment="kpoint 109">
       <set comment="band 1">
        <r>  0.0283  0.0088  0.0132  0.0044  0.2096  0.2990  0.0786  0.1495  0.0262 </r>
       </set>
       <set comment="band 2">
        <r>  0.0000  0.0109  0.0000  0.0219  0.0466  0.1399  0.0000  0.2797  0.3730 </r>
       </set>
       <set comment="band 3">
        <r>  0.0000  0.0332  0.0498  0.0166  0.1714  0.0000  0.5786  0.0000  0.0214 </r>
       </set>
       <set comment="band 4">
        <r>  0.0220  0.0022  0.0033  0.0011  0.3634  0.2436  0.1363  0.1218  0.0454 </r>
       </set>
       <set comment="band 5">
        <r>  0.0000  0.0000  0.0000  0.0000  0.0548  0.1644  0.0000  0.3287  0.4383 </r>
       </set>
       <set comment="band 6">
        <r>  0.0000  0.1673  0.2509  0.0836  0.0521  0.0000  0.1759  0.0000  0.0065 </r>
       </set>
       <set comment="band 7">
        <r>  0.6815  0.0020  0.0030  0.0010  0.0002  0.0796  0.0001  0.0398  0.0000 </r>
       </set>
       <set comment="band 8">
        <r>  0.0000  0.1833  0.0000  0.3666  0.0080  0.0239  0.0000  0.0478  0.0637 </r>
       </set>
       <set comment="band 9">
        <r>  0.0000  0.1195  0.1793  0.0598  0.1483  0.0641  0.0556  0.0321  0.0185 </r>
       </set>
       <set comment="band 10">
        <r>  0.0000  0.0042  0.0000  0.0084  0.0278  0.0835  0.0000  0.1668  0.2225 </r>
       </set>
       <set comment="band 11">
        <r>  0.0966  0.0780  0.1171  0.0390  0.0103  0.1099  0.0039  0.0550  0.0013 </r>
       </set>
       <set comment="band 12">
        <r>  0.0000  0.0040  0.0061  0.0020  0.0383  0.0000  0.1294  0.0000  0.0048 </r>
       </set>
      </set>
      <set comment="kpoint 110">
       <set comment="band 1">
        <r>  0.0283  0.0088  0.0132  0.0044  0.4934  0.0151  0.1850  0.0076  0.0617 </r>
       </set>
       <set comment="band 2">
        <r>  0.0000  0.0109  0.0164  0.0055  0.1865  0.0000  0.6295  0.0000  0.0233 </r>
       </set>
       <set comment="band 3">
        <r>  0.0000  0.0332  0.0000  0.0663  0.0429  0.1286  0.0000  0.2571  0.3429 </r>
       </set>
       <set comment="band 4">
        <r>  0.0220  0.0022  0.0033  0.0011  0.0159  0.5911  0.0060  0.2956  0.0020 </r>
       </set>
       <set comment="band 5">
        <r>  0.0000  0.0000  0.0000  0.0000  0.0548  0.1644  0.0000  0.3287  0.4383 </r>
       </set>
       <set comment="band 6">
        <r>  0.0000  0.1672  0.0000  0.3345  0.0130  0.0391  0.0000  0.0782  0.1042 </r>
       </set>
       <set comment="band 7">
        <r>  0.6815  0.0020  0.0030  0.0010  0.0563  0.0235  0.0211  0.0117  0.0070 </r>
       </set>
       <set comment="band 8">
        <r>  0.0000  0.1833  0.2750  0.0917  0.0319  0.0000  0.1076  0.0000  0.0040 </r>
       </set>
       <set comment="band 9">
        <r>  0.0000  0.1195  0.1792  0.0598  0.1696  0.0428  0.0636  0.0214  0.0212 </r>
       </set>
       <set comment="band 10">
        <r>  0.0000  0.0042  0.0064  0.0021  0.1112  0.0000  0.3756  0.0000  0.0139 </r>
       </set>
       <set comment="band 11">
        <r>  0.0966  0.0780  0.1170  0.0390  0.1143  0.0061  0.0428  0.0030  0.0143 </r>
       </set>
       <set comment="band 12">
        <r>  0.0000  0.0040  0.0000  0.0081  0.0096  0.0288  0.0000  0.0575  0.0767 </r>
       </set>
      </set>
      <set comment="kpoint 111">
       <set comment="band 1">
        <r>  0.0283  0.0088  0.0000  0.0176  0.0598  0.4487  0.0224  0.2244  0.0075 </r>
       </set>
       <set comment="band 2">
        <r>  0.0000  0.0109  0.0164  0.0055  0.0466  0.1399  0.0000  0.2797  0.3730 </r>
       </set>
       <set comment="band 3">
        <r>  0.0000  0.0332  0.0498  0.0166  0.0429  0.1286  0.0000  0.2572  0.3429 </r>
       </set>
       <set comment="band 4">
        <r>  0.0220  0.0022  0.0000  0.0044  0.5312  0.0758  0.1992  0.0379  0.0664 </r>
       </set>
       <set comment="band 5">
        <r>  0.0000  0.0000  0.0000  0.0000  0.2191  0.0000  0.7396  0.0000  0.0274 </r>
       </set>
       <set comment="band 6">
        <r>  0.0000  0.1673  0.2509  0.0836  0.0130  0.0391  0.0000  0.0782  0.1042 </r>
       </set>
       <set comment="band 7">
        <r>  0.6815  0.0020  0.0000  0.0040  0.0632  0.0166  0.0237  0.0083  0.0079 </r>
       </set>
       <set comment="band 8">
        <r>  0.0000  0.1833  0.2750  0.0916  0.0080  0.0239  0.0000  0.0478  0.0638 </r>
       </set>
       <set comment="band 9">
        <r>  0.0000  0.1195  0.0000  0.2390  0.0007  0.2117  0.0003  0.1059  0.0001 </r>
       </set>
       <set comment="band 10">
        <r>  0.0000  0.0042  0.0063  0.0021  0.0278  0.0835  0.0000  0.1669  0.2225 </r>
       </set>
       <set comment="band 11">
        <r>  0.0966  0.0780  0.0000  0.1561  0.0559  0.0643  0.0210  0.0322  0.0070 </r>
       </set>
       <set comment="band 12">
        <r>  0.0000  0.0040  0.0061  0.0020  0.0096  0.0288  0.0000  0.0575  0.0767 </r>
       </set>
      </set>
      <set comment="kpoint 112">
       <set comment="band 1">
        <r>  0.0283  0.0088  0.0132  0.0044  0.2096  0.2990  0.0786  0.1495  0.0262 </r>
       </set>
       <set comment="band 2">
        <r>  0.0000  0.0109  0.0000  0.0219  0.0466  0.1399  0.0000  0.2798  0.3730 </r>
       </set>
       <set comment="band 3">
        <r>  0.0000  0.0332  0.0498  0.0166  0.1714  0.0000  0.5786  0.0000  0.0214 </r>
       </set>
       <set comment="band 4">
        <r>  0.0220  0.0022  0.0033  0.0011  0.3634  0.2436  0.1363  0.1218  0.0454 </r>
       </set>
       <set comment="band 5">
        <r>  0.0000  0.0000  0.0000  0.0000  0.0548  0.1644  0.0000  0.3287  0.4383 </r>
       </set>
       <set comment="band 6">
        <r>  0.0000  0.1672  0.2509  0.0836  0.0521  0.0000  0.1759  0.0000  0.0065 </r>
       </set>
       <set comment="band 7">
        <r>  0.6815  0.0020  0.0030  0.0010  0.0002  0.0796  0.0001  0.0398  0.0000 </r>
       </set>
       <set comment="band 8">
        <r>  0.0000  0.1833  0.0000  0.3666  0.0080  0.0239  0.0000  0.0478  0.0638 </r>
       </set>
       <set comment="band 9">
        <r>  0.0000  0.1195  0.1793  0.0597  0.1483  0.0641  0.0556  0.0321  0.0185 </r>
       </set>
       <set comment="band 10">
        <r>  0.0000  0.0042  0.0000  0.0085  0.0278  0.0834  0.0000  0.1670  0.2225 </r>
       </set>
       <set comment="band 11">
        <r>  0.0966  0.0780  0.1171  0.0390  0.0103  0.1100  0.0039  0.0549  0.0013 </r>
       </set>
       <set comment="band 12">
        <r>  0.0000  0.0040  0.0061  0.0020  0.0383  0.0000  0.1294  0.0000  0.0048 </r>
       </set>
      </set>
     </set>
    </set>
   </array>
  </projected>
 </calculation>
 <structure name="finalpos" >
  <crystal>
   <varray name="basis" >
    <v>       2.61017100       0.00000500       1.50699800 </v>
    <v>       0.87006300       2.46089000       1.50699800 </v>
    <v>       0.00000700       0.00000500       3.01397300 </v>
   </varray>
   <i name="volume">     19.35973233 </i>
   <varray name="rec_basis" >
    <v>       0.38311731      -0.13545310      -0.00000067 </v>
    <v>      -0.00000039       0.40635760      -0.00000067 </v>
    <v>      -0.19155992      -0.13545328       0.33178865 </v>
   </varray>
  </crystal>
  <varray name="positions" >
   <v>       0.00000000       0.00000000       0.00000000 </v>
  </varray>
 </structure>
</modeling>
