       N       E                     dE             d eps       ncg     rms          rms(c)
DAV:   1     0.915568356005E+02    0.91557E+02   -0.17954E+03    32   0.320E+02
DAV:   2     0.856166473401E+01   -0.82995E+02   -0.81477E+02    40   0.767E+01
DAV:   3    -0.131386846826E+02   -0.21700E+02   -0.21607E+02    32   0.626E+01
DAV:   4    -0.151967784847E+02   -0.20581E+01   -0.20567E+01    40   0.186E+01
DAV:   5    -0.152084770831E+02   -0.11699E-01   -0.11698E-01    24   0.136E+00    0.692E+00
DAV:   6    -0.145900178411E+02    0.61846E+00   -0.36174E+00    24   0.101E+01    0.376E+00
DAV:   7    -0.144652519889E+02    0.12477E+00   -0.67396E-01    32   0.391E+00    0.194E+00
DAV:   8    -0.144324046302E+02    0.32847E-01   -0.15531E-01    24   0.239E+00    0.481E-01
DAV:   9    -0.144321997203E+02    0.20491E-03   -0.84239E-03    28   0.557E-01    0.125E-01
DAV:  10    -0.144332558959E+02   -0.10562E-02   -0.15904E-03    24   0.233E-01    0.362E-02
DAV:  11    -0.144351999530E+02   -0.19441E-02   -0.41881E-04    24   0.101E-01    0.181E-02
DAV:  12    -0.144360918738E+02   -0.89192E-03   -0.14369E-04    28   0.502E-02    0.921E-03
DAV:  13    -0.144369519417E+02   -0.86007E-03   -0.22306E-04    24   0.505E-02    0.547E-03
DAV:  14    -0.144372468044E+02   -0.29486E-03   -0.20597E-05    32   0.160E-02    0.341E-03
DAV:  15    -0.144375673591E+02   -0.32055E-03   -0.23315E-05    32   0.181E-02    0.327E-03
DAV:  16    -0.144376378734E+02   -0.70514E-04   -0.28756E-06    28   0.757E-03
   1 F= -.14437638E+02 E0= -.14437638E+02  d E =-.144376E+02
       N       E                     dE             d eps       ncg     rms          rms(c)
DAV:   1    -0.144168207536E+02    0.20747E-01   -0.12313E+00    28   0.882E+00    0.532E-01
DAV:   2    -0.144160894895E+02    0.73126E-03   -0.27323E-02    24   0.118E+00    0.233E-01
DAV:   3    -0.144151162755E+02    0.97321E-03   -0.30246E-03    32   0.386E-01    0.858E-02
DAV:   4    -0.144150940713E+02    0.22204E-04   -0.32001E-04    32   0.136E-01
   2 F= -.14415094E+02 E0= -.14415094E+02  d E =0.225438E-01
       N       E                     dE             d eps       ncg     rms          rms(c)
DAV:   1    -0.144393005489E+02   -0.24184E-01   -0.10111E+00    24   0.799E+00    0.471E-01
DAV:   2    -0.144385978075E+02    0.70274E-03   -0.21050E-02    24   0.104E+00    0.212E-01
DAV:   3    -0.144378633687E+02    0.73444E-03   -0.25955E-03    32   0.360E-01    0.738E-02
DAV:   4    -0.144378818508E+02   -0.18482E-04   -0.19887E-04    32   0.107E-01
   3 F= -.14437882E+02 E0= -.14437882E+02  d E =-.243977E-03
