 vasp.6.2.0 18Jan21 (build Feb  1 2022 01:28:57) complex                         
 executed on             LinuxPGI date 2022.05.18  19:38:47
 running on   16 total cores
 distrk:  each k-point on   16 cores,    1 groups
 distr:  one band on NCORE=   4 cores,    4 groups


--------------------------------------------------------------------------------------------------------


 INCAR:
   ALGO = 38
   EDIFF = 0.0001
   EDIFFG = -0.03
   ENCUT = 420
   GGA = RP
   IBRION = 2
   ISIF = 0
   ISMEAR = 0
   ISPIN = 1
   ISYM = 0
   LASPH = False
   LORBIT = 11
   LREAL = False
   LVTOT = False
   LWAVE = False
   NCORE = 4
   NELM = 60
   NELMIN = 4
   NSW = 0
   PREC = Normal
   SIGMA = 0.05
   SYMPREC = 1e-05

 POTCAR:    PAW_PBE Pt 04Feb2005                  
 POTCAR:    PAW_PBE Pt 04Feb2005                  
   SHA256 =  3ed90460adef76debcff1cfb73ee1349b515b1a3db03439735b44de3a8db7dc8 Pt/POTCAR             
   COPYR  = (c) Copyright 04Feb2005 Georg Kresse                                                    
   COPYR  = This file is part of the software VASP. Any use, copying, and all other rights are regul
   COPYR  = If you do not have a valid VASP license, you may not use, copy or distribute this file. 
   VRHFIN =Pt: s1d9                                                                                 
   LEXCH  = PE                                                                                      
   EATOM  =   729.1176 eV,   53.5886 Ry                                                             
                                                                                                    
   TITEL  = PAW_PBE Pt 04Feb2005                                                                    
   LULTRA =        F    use ultrasoft PP ?                                                          
   IUNSCR =        1    unscreen: 0-lin 1-nonlin 2-no                                               
   RPACOR =    2.330    partial core radius                                                         
   POMASS =  195.080; ZVAL   =   10.000    mass and valenz                                          
   RCORE  =    2.600    outmost cutoff radius                                                       
   RWIGS  =    2.750; RWIGS  =    1.455    wigner-seitz radius (au A)                               
   ENMAX  =  230.283; ENMIN  =  172.712 eV                                                          
   ICORE  =        3    local potential                                                             
   LCOR   =        T    correct aug charges                                                         
   LPAW   =        T    paw PP                                                                      
   EAUG   =  358.966                                                                                
   DEXC   =    0.000                                                                                
   RMAX   =    2.658    core radius for proj-oper                                                   
   RAUG   =    1.300    factor for augmentation sphere                                              
   RDEP   =    2.761    radius for radial grids                                                     
   RDEPT  =    2.203    core radius for aug-charge                                                  
                                                                                                    
   Atomic configuration                                                                             
   16 entries                                                                                       
     n  l   j            E        occ.                                                              
     1  0  0.50    -78401.1885   2.0000                                                             
     2  0  0.50    -13770.7750   2.0000                                                             
     2  1  1.50    -11931.0468   6.0000                                                             
     3  0  0.50     -3234.7234   2.0000                                                             
     3  1  1.50     -2699.2216   6.0000                                                             
     3  2  2.50     -2119.5714  10.0000                                                             
     4  0  0.50      -695.1528   2.0000                                                             
     4  1  1.50      -519.6034   6.0000                                                             
     4  2  2.50      -306.6786  10.0000                                                             
     4  3  3.50       -70.1041  14.0000                                                             
     5  0  0.50      -101.7747   2.0000                                                             
     5  1  1.50       -55.9873   6.0000                                                             
     5  2  2.50        -6.1423   9.0000                                                             
     6  0  0.50        -5.6573   1.0000                                                             
     6  1  1.50        -6.8029   0.0000                                                             
     5  3  2.50        -1.3606   0.0000                                                             
   Description                                                                                      
     l       E           TYP  RCUT    TYP  RCUT                                                     
     2     -6.1423404     23  2.500                                                                 
     2     -7.5029230     23  2.500                                                                 
     0     -5.6573207     23  2.500                                                                 
     0      0.7416693     23  2.500                                                                 
     1     -2.7211652     23  2.600                                                                 
     1     20.4087390     23  2.600                                                                 
     3     -1.3605826     23  2.500                                                                 
  local pseudopotential read in
  partial core-charges read in
  partial kinetic energy density read in
  atomic valenz-charges read in
  non local Contribution for L=            2  read in
    real space projection operators read in
  non local Contribution for L=            2  read in
    real space projection operators read in
  non local Contribution for L=            0  read in
    real space projection operators read in
  non local Contribution for L=            0  read in
    real space projection operators read in
  non local Contribution for L=            1  read in
    real space projection operators read in
  non local Contribution for L=            1  read in
    real space projection operators read in
    PAW grid and wavefunctions read in
 
   number of l-projection  operators is LMAX  =            6
   number of lm-projection operators is LMMAX =           18
 
 -----------------------------------------------------------------------------
|                                                                             |
|               ----> ADVICE to this user running VASP <----                  |
|                                                                             |
|     You enforced a specific xc type in the INCAR file but a different       |
|     type was found in the POTCAR file.                                      |
|     I HOPE YOU KNOW WHAT YOU ARE DOING!                                     |
|                                                                             |
 -----------------------------------------------------------------------------

  PAW_PBE Pt 04Feb2005                  :
 energy of atom  1       EATOM= -729.1176
 kinetic energy error for atom=    0.0052 (will be added to EATOM!!)
 
 
 POSCAR: Pt1
  positions in direct lattice
  velocities in cartesian coordinates
 exchange correlation table for  LEXCH =        9
   RHO(1)=    0.500       N(1)  =     2000
   RHO(2)=  100.500       N(2)  =     4000
 


--------------------------------------------------------------------------------------------------------


 ion  position               nearest neighbor table
   1  0.000  0.000  0.000-
 

IMPORTANT INFORMATION: All symmetrisations will be switched off!
NOSYMM: (Re-)initialisation of all symmetry stuff for point group C_1.


----------------------------------------------------------------------------------------

                                     Primitive cell                                     

  volume of cell :      14.6105

  direct lattice vectors                    reciprocal lattice vectors
     2.376425000  0.000005000  1.372043000     0.420800839 -0.148776365 -0.000000649
     0.792147000  2.240512000  1.372043000    -0.000000470  0.446327218 -0.000000813
     0.000006000  0.000005000  2.744065000    -0.210401795 -0.148776565  0.364423586

  length of vectors
     2.744065920  2.744065029  2.744065000     0.446326958  0.446327218  0.446327157

  position of ions in fractional coordinates (direct lattice)
     0.000000000  0.000000000  0.000000000

  ion indices of the primitive-cell ions
   primitive index   ion index
                 1           1

----------------------------------------------------------------------------------------

 
 -----------------------------------------------------------------------------
|                                                                             |
|           W    W    AA    RRRRR   N    N  II  N    N   GGGG   !!!           |
|           W    W   A  A   R    R  NN   N  II  NN   N  G    G  !!!           |
|           W    W  A    A  R    R  N N  N  II  N N  N  G       !!!           |
|           W WW W  AAAAAA  RRRRR   N  N N  II  N  N N  G  GGG   !            |
|           WW  WW  A    A  R   R   N   NN  II  N   NN  G    G                |
|           W    W  A    A  R    R  N    N  II  N    N   GGGG   !!!           |
|                                                                             |
|     The requested file  could not be found or opened for reading            |
|     k-point information. Automatic k-point generation is used as a          |
|     fallback, which may lead to unwanted results.                           |
|                                                                             |
 -----------------------------------------------------------------------------

 

Automatic generation of k-mesh.
 Grid dimensions derived from KSPACING:
 generate k-points for:    6    6    6

 Generating k-lattice:

  Cartesian coordinates                     Fractional coordinates (reciprocal lattice)
     0.070133473 -0.024796061 -0.000000108     0.166666667  0.000000000  0.000000000
    -0.000000078  0.074387870 -0.000000136     0.000000000  0.166666667  0.000000000
    -0.035066966 -0.024796094  0.060737264     0.000000000  0.000000000  0.166666667

  Length of vectors
     0.074387826  0.074387870  0.074387860

  Shift w.r.t. Gamma in fractional coordinates (k-lattice)
     0.000000000  0.000000000  0.000000000

 
 Subroutine IBZKPT returns following result:
 ===========================================
 
 Found    112 irreducible k-points:
 
 Following reciprocal coordinates:
            Coordinates               Weight
  0.000000  0.000000  0.000000      1.000000
  0.166667  0.000000  0.000000      2.000000
  0.000000  0.166667  0.000000      2.000000
  0.000000  0.000000  0.166667      2.000000
  0.166667  0.166667  0.166667      2.000000
  0.333333  0.000000  0.000000      2.000000
  0.000000  0.333333  0.000000      2.000000
  0.000000  0.000000  0.333333      2.000000
  0.333333  0.333333  0.333333      2.000000
  0.500000  0.000000  0.000000      1.000000
  0.000000  0.500000  0.000000      1.000000
  0.000000  0.000000  0.500000      1.000000
  0.500000  0.500000  0.500000      1.000000
  0.166667  0.166667  0.000000      2.000000
  0.000000  0.166667  0.166667      2.000000
  0.166667  0.000000  0.166667      2.000000
  0.333333  0.166667  0.000000      2.000000
  0.000000  0.333333  0.166667      2.000000
  0.166667  0.000000  0.333333      2.000000
  0.166667  0.166667 -0.166667      2.000000
  0.333333  0.166667  0.333333      2.000000
  0.166667  0.333333  0.000000      2.000000
  0.166667 -0.166667 -0.166667      2.000000
  0.333333  0.333333  0.166667      2.000000
  0.000000  0.166667  0.333333      2.000000
 -0.166667  0.166667 -0.166667      2.000000
  0.166667  0.333333  0.333333      2.000000
  0.333333  0.000000  0.166667      2.000000
  0.500000  0.166667  0.000000      2.000000
  0.000000  0.500000  0.166667      2.000000
  0.166667  0.000000  0.500000      2.000000
  0.166667  0.166667 -0.333333      2.000000
  0.500000  0.333333  0.500000      2.000000
  0.166667  0.500000  0.000000      2.000000
  0.333333 -0.166667 -0.166667      2.000000
  0.500000  0.500000  0.333333      2.000000
  0.000000  0.166667  0.500000      2.000000
 -0.166667  0.333333 -0.166667      2.000000
  0.333333  0.500000  0.500000      2.000000
  0.500000  0.000000  0.166667      2.000000
 -0.333333  0.166667  0.000000      2.000000
  0.000000 -0.333333  0.166667      2.000000
  0.166667  0.000000 -0.333333      2.000000
  0.166667  0.166667  0.500000      2.000000
 -0.333333  0.500000 -0.333333      2.000000
  0.166667 -0.333333  0.000000      2.000000
  0.500000 -0.166667 -0.166667      2.000000
 -0.333333 -0.333333  0.500000      2.000000
  0.000000  0.166667 -0.333333      2.000000
 -0.166667  0.500000 -0.166667      2.000000
  0.500000 -0.333333 -0.333333      2.000000
 -0.333333  0.000000  0.166667      2.000000
 -0.166667  0.166667  0.000000      2.000000
  0.000000 -0.166667  0.166667      2.000000
  0.166667  0.000000 -0.166667      2.000000
  0.166667  0.166667  0.333333      2.000000
 -0.166667 -0.333333 -0.166667      2.000000
 -0.333333 -0.166667 -0.166667      2.000000
  0.333333  0.333333  0.000000      2.000000
  0.000000  0.333333  0.333333      2.000000
  0.333333  0.000000  0.333333      2.000000
  0.500000  0.333333  0.000000      2.000000
  0.000000  0.500000  0.333333      2.000000
  0.333333  0.000000  0.500000      2.000000
  0.333333  0.333333 -0.166667      2.000000
  0.500000  0.166667  0.500000      2.000000
  0.333333  0.500000  0.000000      2.000000
  0.166667 -0.333333 -0.333333      2.000000
  0.500000  0.500000  0.166667      2.000000
  0.000000  0.333333  0.500000      2.000000
 -0.333333  0.166667 -0.333333      2.000000
  0.166667  0.500000  0.500000      2.000000
  0.500000  0.000000  0.333333      2.000000
 -0.333333  0.333333  0.000000      2.000000
  0.000000 -0.333333  0.333333      2.000000
  0.333333  0.000000 -0.333333      2.000000
  0.333333  0.333333 -0.333333      2.000000
 -0.333333  0.333333 -0.333333      2.000000
  0.333333 -0.333333 -0.333333      2.000000
  0.500000  0.500000  0.000000      1.000000
  0.000000  0.500000  0.500000      1.000000
  0.500000  0.000000  0.500000      1.000000
  0.500000  0.333333  0.166667      2.000000
  0.166667  0.500000  0.333333      2.000000
  0.333333  0.166667  0.500000      2.000000
  0.333333  0.166667 -0.166667      2.000000
  0.500000  0.166667  0.333333      2.000000
  0.166667 -0.333333 -0.166667      2.000000
  0.166667  0.333333 -0.166667      2.000000
  0.166667 -0.166667 -0.333333      2.000000
  0.333333  0.500000  0.166667      2.000000
 -0.166667  0.166667 -0.333333      2.000000
 -0.333333  0.166667 -0.166667      2.000000
  0.166667  0.333333  0.500000      2.000000
 -0.333333  0.333333  0.166667      2.000000
  0.166667 -0.333333  0.333333      2.000000
  0.333333  0.166667 -0.333333      2.000000
 -0.333333  0.333333  0.500000      2.000000
  0.166667  0.500000 -0.166667      2.000000
  0.333333 -0.166667 -0.333333      2.000000
  0.500000 -0.333333  0.333333      2.000000
 -0.166667  0.166667  0.500000      2.000000
 -0.333333  0.333333 -0.166667      2.000000
  0.333333  0.500000 -0.333333      2.000000
  0.500000 -0.166667  0.166667      2.000000
 -0.166667 -0.333333  0.333333      2.000000
 -0.333333  0.500000  0.166667      2.000000
  0.166667 -0.333333  0.500000      2.000000
  0.500000  0.166667 -0.333333      2.000000
  0.500000  0.333333 -0.166667      2.000000
 -0.333333  0.166667  0.500000      2.000000
  0.166667  0.500000 -0.333333      2.000000
 
 Following cartesian coordinates:
            Coordinates               Weight
  0.000000  0.000000  0.000000      1.000000
  0.070133 -0.024796 -0.000000      2.000000
 -0.000000  0.074388 -0.000000      2.000000
 -0.035067 -0.024796  0.060737      2.000000
  0.035066  0.024796  0.060737      2.000000
  0.140267 -0.049592 -0.000000      2.000000
 -0.000000  0.148776 -0.000000      2.000000
 -0.070134 -0.049592  0.121475      2.000000
  0.070133  0.049591  0.121474      2.000000
  0.210400 -0.074388 -0.000000      1.000000
 -0.000000  0.223164 -0.000000      1.000000
 -0.105201 -0.074388  0.182212      1.000000
  0.105199  0.074387  0.182211      1.000000
  0.070133  0.049592 -0.000000      2.000000
 -0.035067  0.049592  0.060737      2.000000
  0.035067 -0.049592  0.060737      2.000000
  0.140267  0.024796 -0.000000      2.000000
 -0.035067  0.123980  0.060737      2.000000
 -0.000000 -0.074388  0.121474      2.000000
  0.105200  0.074388 -0.060738      2.000000
  0.070133 -0.024796  0.121474      2.000000
  0.070133  0.123980 -0.000000      2.000000
  0.105201 -0.074388 -0.060737      2.000000
  0.105200  0.074388  0.060737      2.000000
 -0.070134  0.024796  0.121474      2.000000
 -0.035067  0.123980 -0.060737      2.000000
 -0.000001  0.074387  0.121474      2.000000
  0.105200 -0.074388  0.060737      2.000000
  0.210400 -0.000000 -0.000000      2.000000
 -0.035067  0.198368  0.060737      2.000000
 -0.035067 -0.099184  0.182212      2.000000
  0.140267  0.099184 -0.121475      2.000000
  0.105199 -0.000001  0.182211      2.000000
  0.070133  0.198368 -0.000001      2.000000
  0.175334 -0.099184 -0.060737      2.000000
  0.140266  0.099183  0.121474      2.000000
 -0.105201 -0.000000  0.182212      2.000000
 -0.035067  0.198368 -0.060737      2.000000
  0.035066  0.099183  0.182211      2.000000
  0.175333 -0.099184  0.060737      2.000000
 -0.140267  0.123980  0.000000      2.000000
 -0.035067 -0.173572  0.060738      2.000000
  0.140267  0.024796 -0.121475      2.000000
 -0.035068 -0.024796  0.182212      2.000000
 -0.070133  0.322348 -0.121475      2.000000
  0.070134 -0.173572  0.000000      2.000000
  0.245467 -0.123980 -0.060737      2.000000
 -0.245468 -0.173572  0.182212      2.000000
  0.070134  0.123980 -0.121475      2.000000
 -0.035067  0.272756 -0.060738      2.000000
  0.280535 -0.173572 -0.121475      2.000000
 -0.175334  0.024796  0.060737      2.000000
 -0.070134  0.099184 -0.000000      2.000000
 -0.035067 -0.099184  0.060737      2.000000
  0.105200  0.000000 -0.060737      2.000000
 -0.000001 -0.000000  0.121474      2.000000
 -0.035066 -0.099184 -0.060737      2.000000
 -0.105200  0.000000 -0.060737      2.000000
  0.140267  0.099184 -0.000000      2.000000
 -0.070134  0.099184  0.121474      2.000000
  0.070133 -0.099184  0.121474      2.000000
  0.210400  0.074388 -0.000001      2.000000
 -0.070134  0.173571  0.121474      2.000000
  0.035066 -0.123980  0.182212      2.000000
  0.175334  0.123980 -0.060738      2.000000
  0.105199 -0.074389  0.182211      2.000000
  0.140267  0.173571 -0.000001      2.000000
  0.140268 -0.123980 -0.121474      2.000000
  0.175333  0.123979  0.060737      2.000000
 -0.105201  0.074387  0.182212      2.000000
 -0.070133  0.173572 -0.121474      2.000000
 -0.035068  0.123979  0.182211      2.000000
  0.140266 -0.123980  0.121474      2.000000
 -0.140267  0.198368 -0.000000      2.000000
 -0.070134 -0.198368  0.121475      2.000000
  0.210401  0.000000 -0.121475      2.000000
  0.210401  0.148776 -0.121475      2.000000
 -0.070133  0.247960 -0.121475      2.000000
  0.210401 -0.148776 -0.121474      2.000000
  0.210400  0.148775 -0.000001      1.000000
 -0.105201  0.148775  0.182211      1.000000
  0.105200 -0.148776  0.182211      1.000000
  0.175333  0.049591  0.060737      2.000000
 -0.000001  0.148775  0.121474      2.000000
  0.035066 -0.049593  0.182211      2.000000
  0.175334  0.049592 -0.060738      2.000000
  0.140266 -0.049593  0.121474      2.000000
  0.105201 -0.148776 -0.060737      2.000000
  0.105200  0.148776 -0.060738      2.000000
  0.140267 -0.049592 -0.121475      2.000000
  0.105200  0.148775  0.060737      2.000000
  0.000000  0.148776 -0.121475      2.000000
 -0.105200  0.148776 -0.060737      2.000000
 -0.035068  0.049591  0.182211      2.000000
 -0.175334  0.173572  0.060737      2.000000
 -0.000000 -0.223164  0.121475      2.000000
  0.210401  0.074388 -0.121475      2.000000
 -0.245468  0.123980  0.182212      2.000000
  0.105200  0.223164 -0.060738      2.000000
  0.210401 -0.074388 -0.121475      2.000000
  0.140267 -0.272756  0.121474      2.000000
 -0.175334  0.024796  0.182212      2.000000
 -0.105200  0.223164 -0.060737      2.000000
  0.210401  0.223164 -0.121475      2.000000
  0.175334 -0.173572  0.060737      2.000000
 -0.140267 -0.173572  0.121475      2.000000
 -0.175334  0.247960  0.060737      2.000000
 -0.035067 -0.247960  0.182212      2.000000
  0.280534  0.049592 -0.121475      2.000000
  0.245467  0.099184 -0.060738      2.000000
 -0.245468  0.049592  0.182212      2.000000
  0.140267  0.247960 -0.121475      2.000000
 


--------------------------------------------------------------------------------------------------------




 Dimension of arrays:
   k-points           NKPTS =    112   k-points in BZ     NKDIM =    112   number of bands    NBANDS=     12
   number of dos      NEDOS =    301   number of ions     NIONS =      1
   non local maximal  LDIM  =      6   non local SUM 2l+1 LMDIM =     18
   total plane-waves  NPLWV =   2744
   max r-space proj   IRMAX =      1   max aug-charges    IRDMAX=  11573
   dimension x,y,z NGX =    14 NGY =   14 NGZ =   14
   dimension x,y,z NGXF=    28 NGYF=   28 NGZF=   28
   support grid    NGXF=    28 NGYF=   28 NGZF=   28
   ions per type =               1
   NGX,Y,Z   is equivalent  to a cutoff of   8.48,  8.48,  8.48 a.u.
   NGXF,Y,Z  is equivalent  to a cutoff of  16.96, 16.96, 16.96 a.u.

 SYSTEM =  unknown system                          
 POSCAR =  Pt1                                     

 Startparameter for this run:
   NWRITE =      2    write-flag & timer
   PREC   = normal    normal or accurate (medium, high low for compatibility)
   ISTART =      0    job   : 0-new  1-cont  2-samecut
   ICHARG =      2    charge: 1-file 2-atom 10-const
   ISPIN  =      1    spin polarized calculation?
   LNONCOLLINEAR =      F non collinear calculations
   LSORBIT =      F    spin-orbit coupling
   INIWAV =      1    electr: 0-lowe 1-rand  2-diag
   LASPH  =      F    aspherical Exc in radial PAW
   METAGGA=      F    non-selfconsistent MetaGGA calc.

 Electronic Relaxation 1
   ENCUT  =  420.0 eV  30.87 Ry    5.56 a.u.   4.59  4.59  4.59*2*pi/ulx,y,z
   ENINI  =  420.0     initial cutoff
   ENAUG  =  359.0 eV  augmentation charge cutoff
   NELM   =     60;   NELMIN=  4; NELMDL= -5     # of ELM steps 
   EDIFF  = 0.1E-03   stopping-criterion for ELM
   LREAL  =      F    real-space projection
   NLSPLINE    = F    spline interpolate recip. space projectors
   LCOMPAT=      F    compatible to vasp.4.4
   GGA_COMPAT  = T    GGA compatible to vasp.4.4-vasp.4.6
   LMAXPAW     = -100 max onsite density
   LMAXMIX     =    2 max onsite mixed and CHGCAR
   VOSKOWN=      0    Vosko Wilk Nusair interpolation
   ROPT   =    0.00000
 Ionic relaxation
   EDIFFG = -.3E-01   stopping-criterion for IOM
   NSW    =      0    number of steps for IOM
   NBLOCK =      1;   KBLOCK =      1    inner block; outer block 
   IBRION =     -1    ionic relax: 0-MD 1-quasi-New 2-CG
   NFREE  =      1    steps in history (QN), initial steepest desc. (CG)
   ISIF   =      0    stress and relaxation
   IWAVPR =     10    prediction:  0-non 1-charg 2-wave 3-comb
   ISYM   =      0    0-nonsym 1-usesym 2-fastsym
   LCORR  =      T    Harris-Foulkes like correction to forces

   POTIM  = 0.5000    time-step for ionic-motion
   TEIN   =    0.0    initial temperature
   TEBEG  =    0.0;   TEEND  =   0.0 temperature during run
   SMASS  =  -3.00    Nose mass-parameter (am)
   estimated Nose-frequenzy (Omega)   =  0.10E-29 period in steps = 0.13E+47 mass=  -0.172E-27a.u.
   SCALEE = 1.0000    scale energy and forces
   NPACO  =    256;   APACO  = 16.0  distance and # of slots for P.C.
   PSTRESS=    0.0 pullay stress

  Mass of Ions in am
   POMASS = 195.08
  Ionic Valenz
   ZVAL   =  10.00
  Atomic Wigner-Seitz radii
   RWIGS  =  -1.00
  virtual crystal weights 
   VCA    =   1.00
   NELECT =      10.0000    total number of electrons
   NUPDOWN=      -1.0000    fix difference up-down

 DOS related values:
   EMIN   =  10.00;   EMAX   =-10.00  energy-range for DOS
   EFERMI =   0.00
   ISMEAR =     0;   SIGMA  =   0.05  broadening in eV -4-tet -1-fermi 0-gaus

 Electronic relaxation 2 (details)
   IALGO  =     38    algorithm
   LDIAG  =      T    sub-space diagonalisation (order eigenvalues)
   LSUBROT=      F    optimize rotation matrix (better conditioning)
   TURBO    =      0    0=normal 1=particle mesh
   IRESTART =      0    0=no restart 2=restart with 2 vectors
   NREBOOT  =      0    no. of reboots
   NMIN     =      0    reboot dimension
   EREF     =   0.00    reference energy to select bands
   IMIX   =      4    mixing-type and parameters
     AMIX     =   0.40;   BMIX     =  1.00
     AMIX_MAG =   1.60;   BMIX_MAG =  1.00
     AMIN     =   0.10
     WC   =   100.;   INIMIX=   1;  MIXPRE=   1;  MAXMIX= -45

 Intra band minimization:
   WEIMIN = 0.0000     energy-eigenvalue tresh-hold
   EBREAK =  0.21E-05  absolut break condition
   DEPER  =   0.30     relativ break condition  

   TIME   =   0.40     timestep for ELM

  volume/ion in A,a.u.               =      14.61        98.60
  Fermi-wavevector in a.u.,A,eV,Ry     =   1.442735  2.726374 28.320322  2.081485
  Thomas-Fermi vector in A             =   2.561222
 
 Write flags
   LWAVE        =      F    write WAVECAR
   LDOWNSAMPLE  =      F    k-point downsampling of WAVECAR
   LCHARG       =      T    write CHGCAR
   LVTOT        =      F    write LOCPOT, total local potential
   LVHAR        =      F    write LOCPOT, Hartree potential only
   LELF         =      F    write electronic localiz. function (ELF)
   LORBIT       =     11    0 simple, 1 ext, 2 COOP (PROOUT), +10 PAW based schemes


 Dipole corrections
   LMONO  =      F    monopole corrections only (constant potential shift)
   LDIPOL =      F    correct potential (dipole corrections)
   IDIPOL =      0    1-x, 2-y, 3-z, 4-all directions 
   EPSILON=  1.0000000 bulk dielectric constant

 Exchange correlation treatment:
   GGA     =    RP    GGA type
   LEXCH   =     9    internal setting for exchange type
   VOSKOWN=      0    Vosko Wilk Nusair interpolation
   LHFCALC =     F    Hartree Fock is set to
   LHFONE  =     F    Hartree Fock one center treatment
   AEXX    =    0.0000 exact exchange contribution

 Linear response parameters
   LEPSILON=     F    determine dielectric tensor
   LRPA    =     F    only Hartree local field effects (RPA)
   LNABLA  =     F    use nabla operator in PAW spheres
   LVEL    =     F    velocity operator in full k-point grid
   LINTERFAST=   F  fast interpolation
   KINTER  =     0    interpolate to denser k-point grid
   CSHIFT  =0.1000    complex shift for real part using Kramers Kronig
   OMEGAMAX=  -1.0    maximum frequency
   DEG_THRESHOLD= 0.2000000E-02 threshold for treating states as degnerate
   RTIME   =   -0.100 relaxation time in fs
  (WPLASMAI=    0.000 imaginary part of plasma frequency in eV, 0.658/RTIME)
   DFIELD  = 0.0000000 0.0000000 0.0000000 field for delta impulse in time
 
 Orbital magnetization related:
   ORBITALMAG=     F  switch on orbital magnetization
   LCHIMAG   =     F  perturbation theory with respect to B field
   DQ        =  0.001000  dq finite difference perturbation B field
   LLRAUG    =     F  two centre corrections for induced B field



--------------------------------------------------------------------------------------------------------


 Static calculation
 charge density and potential will be updated during run
 non-spin polarized calculation
 Variant of blocked Davidson
 Davidson routine will perform the subspace rotation
 perform sub-space diagonalisation
    after iterative eigenvector-optimisation
 modified Broyden-mixing scheme, WC =      100.0
 initial mixing is a Kerker type mixing with AMIX =  0.4000 and BMIX =      1.0000
 Hartree-type preconditioning will be used
 using additional bands             7
 reciprocal scheme for non local part
 use partial core corrections
 calculate Harris-corrections to forces 
   (improved forces if not selfconsistent)
 use gradient corrections 
 use of overlap-Matrix (Vanderbilt PP)
 Gauss-broadening in eV      SIGMA  =   0.05


--------------------------------------------------------------------------------------------------------


  energy-cutoff  :      420.00
  volume of cell :       14.61
      direct lattice vectors                 reciprocal lattice vectors
     2.376425000  0.000005000  1.372043000     0.420800839 -0.148776365 -0.000000649
     0.792147000  2.240512000  1.372043000    -0.000000470  0.446327218 -0.000000813
     0.000006000  0.000005000  2.744065000    -0.210401795 -0.148776565  0.364423586

  length of vectors
     2.744065920  2.744065029  2.744065000     0.446326958  0.446327218  0.446327157


 
 k-points in units of 2pi/SCALE and weight: read from INCAR                         
   0.00000000  0.00000000  0.00000000       0.005
   0.07013347 -0.02479606 -0.00000011       0.009
  -0.00000008  0.07438787 -0.00000014       0.009
  -0.03506697 -0.02479609  0.06073726       0.009
   0.03506643  0.02479571  0.06073702       0.009
   0.14026695 -0.04959212 -0.00000022       0.009
  -0.00000016  0.14877574 -0.00000027       0.009
  -0.07013393 -0.04959219  0.12147453       0.009
   0.07013286  0.04959143  0.12147404       0.009
   0.21040042 -0.07438818 -0.00000032       0.005
  -0.00000023  0.22316361 -0.00000041       0.005
  -0.10520090 -0.07438828  0.18221179       0.005
   0.10519929  0.07438714  0.18221106       0.005
   0.07013339  0.04959181 -0.00000024       0.009
  -0.03506704  0.04959178  0.06073713       0.009
   0.03506651 -0.04959216  0.06073716       0.009
   0.14026687  0.02479575 -0.00000035       0.009
  -0.03506712  0.12397965  0.06073699       0.009
  -0.00000046 -0.07438825  0.12147442       0.009
   0.10520036  0.07438790 -0.06073751       0.009
   0.07013294 -0.02479644  0.12147418       0.009
   0.07013332  0.12397968 -0.00000038       0.009
   0.10520052 -0.07438784 -0.06073724       0.009
   0.10519982  0.07438752  0.06073678       0.009
  -0.07013401  0.02479568  0.12147439       0.009
  -0.03506659  0.12398002 -0.06073729       0.009
  -0.00000061  0.07438749  0.12147415       0.009
   0.10519998 -0.07438822  0.06073705       0.009
   0.21040034 -0.00000031 -0.00000046       0.009
  -0.03506720  0.19836751  0.06073686       0.009
  -0.03506742 -0.09918434  0.18221168       0.009
   0.14026733  0.09918400 -0.12147477       0.009
   0.10519937 -0.00000073  0.18221120       0.009
   0.07013324  0.19836755 -0.00000051       0.009
   0.17533399 -0.09918390 -0.06073735       0.009
   0.14026625  0.09918324  0.12147380       0.009
  -0.10520098 -0.00000041  0.18221166       0.009
  -0.03506666  0.19836789 -0.06073743       0.009
   0.03506581  0.09918320  0.18221117       0.009
   0.17533345 -0.09918428  0.06073694       0.009
  -0.14026702  0.12397999  0.00000008       0.009
  -0.03506681 -0.17357183  0.06073754       0.009
   0.14026740  0.02479613 -0.12147464       0.009
  -0.03506750 -0.02479647  0.18221155       0.009
  -0.07013325  0.32234792 -0.12147472       0.009
   0.07013363 -0.17357180  0.00000016       0.009
   0.24546746 -0.12397996 -0.06073745       0.009
  -0.24546769 -0.17357190  0.18221228       0.009
   0.07013385  0.12398006 -0.12147466       0.009
  -0.03506674  0.27275576 -0.06073756       0.009
   0.28053451 -0.17357173 -0.12147458       0.009
  -0.17533391  0.02479603  0.06073748       0.009
  -0.07013355  0.09918393 -0.00000003       0.009
  -0.03506689 -0.09918396  0.06073740       0.009
   0.10520044  0.00000003 -0.06073737       0.009
  -0.00000054 -0.00000038  0.12147428       0.009
  -0.03506635 -0.09918358 -0.06073689       0.009
  -0.10519990  0.00000035 -0.06073691       0.009
   0.14026679  0.09918362 -0.00000049       0.009
  -0.07013409  0.09918355  0.12147426       0.009
   0.07013301 -0.09918431  0.12147431       0.009
   0.21040026  0.07438756 -0.00000060       0.009
  -0.07013417  0.17357142  0.12147412       0.009
   0.03506605 -0.12398040  0.18221158       0.009
   0.17533376  0.12397971 -0.06073775       0.009
   0.10519944 -0.07438860  0.18221133       0.009
   0.14026671  0.17357149 -0.00000062       0.009
   0.14026756 -0.12397961 -0.12147437       0.009
   0.17533322  0.12397933  0.06073653       0.009
  -0.10520105  0.07438746  0.18221152       0.009
  -0.07013309  0.17357218 -0.12147445       0.009
  -0.03506766  0.12397927  0.18221128       0.009
   0.14026649 -0.12398037  0.12147420       0.009
  -0.14026710  0.19836786 -0.00000005       0.009
  -0.07013378 -0.19836793  0.12147480       0.009
   0.21040088  0.00000007 -0.12147474       0.009
   0.21040072  0.14877581 -0.12147502       0.009
  -0.07013317  0.24796005 -0.12147458       0.009
   0.21040103 -0.14877567 -0.12147447       0.009
   0.21040018  0.14877543 -0.00000073       0.005
  -0.10520113  0.14877533  0.18221139       0.005
   0.10519952 -0.14877647  0.18221147       0.005
   0.17533330  0.04959146  0.06073667       0.009
  -0.00000069  0.14877536  0.12147401       0.009
   0.03506597 -0.04959253  0.18221144       0.009
   0.17533383  0.04959184 -0.06073762       0.009
   0.14026641 -0.04959250  0.12147407       0.009
   0.10520060 -0.14877571 -0.06073710       0.009
   0.10520028  0.14877577 -0.06073764       0.009
   0.14026748 -0.04959174 -0.12147450       0.009
   0.10519975  0.14877539  0.06073664       0.009
   0.00000038  0.14877612 -0.12147456       0.009
  -0.10520006  0.14877609 -0.06073718       0.009
  -0.03506758  0.04959140  0.18221141       0.009
  -0.17533407  0.17357177  0.06073721       0.009
  -0.00000030 -0.22316399  0.12147469       0.009
   0.21040080  0.07438794 -0.12147488       0.009
  -0.24546800  0.12397958  0.18221174       0.009
   0.10520020  0.22316364 -0.06073778       0.009
   0.21040096 -0.07438780 -0.12147461       0.009
   0.14026664 -0.27275611  0.12147448       0.009
  -0.17533445  0.02479565  0.18221177       0.009
  -0.10520014  0.22316396 -0.06073732       0.009
   0.21040064  0.22316368 -0.12147515       0.009
   0.17533353 -0.17357215  0.06073708       0.009
  -0.14026725 -0.17357187  0.12147491       0.009
  -0.17533415  0.24795964  0.06073707       0.009
  -0.03506727 -0.24796008  0.18221196       0.009
   0.28053427  0.04959188 -0.12147499       0.009
   0.24546723  0.09918365 -0.06073786       0.009
  -0.24546792  0.04959171  0.18221187       0.009
   0.14026717  0.24795974 -0.12147504       0.009
 
 k-points in reciprocal lattice and weights: read from INCAR                         
   0.00000000  0.00000000  0.00000000       0.005
   0.16666667  0.00000000  0.00000000       0.009
   0.00000000  0.16666667  0.00000000       0.009
   0.00000000  0.00000000  0.16666667       0.009
   0.16666667  0.16666667  0.16666667       0.009
   0.33333333  0.00000000  0.00000000       0.009
   0.00000000  0.33333333  0.00000000       0.009
   0.00000000  0.00000000  0.33333333       0.009
   0.33333333  0.33333333  0.33333333       0.009
   0.50000000  0.00000000  0.00000000       0.005
   0.00000000  0.50000000  0.00000000       0.005
   0.00000000  0.00000000  0.50000000       0.005
   0.50000000  0.50000000  0.50000000       0.005
   0.16666667  0.16666667  0.00000000       0.009
   0.00000000  0.16666667  0.16666667       0.009
   0.16666667  0.00000000  0.16666667       0.009
   0.33333333  0.16666667  0.00000000       0.009
   0.00000000  0.33333333  0.16666667       0.009
   0.16666667  0.00000000  0.33333333       0.009
   0.16666667  0.16666667 -0.16666667       0.009
   0.33333333  0.16666667  0.33333333       0.009
   0.16666667  0.33333333  0.00000000       0.009
   0.16666667 -0.16666667 -0.16666667       0.009
   0.33333333  0.33333333  0.16666667       0.009
   0.00000000  0.16666667  0.33333333       0.009
  -0.16666667  0.16666667 -0.16666667       0.009
   0.16666667  0.33333333  0.33333333       0.009
   0.33333333  0.00000000  0.16666667       0.009
   0.50000000  0.16666667  0.00000000       0.009
   0.00000000  0.50000000  0.16666667       0.009
   0.16666667  0.00000000  0.50000000       0.009
   0.16666667  0.16666667 -0.33333333       0.009
   0.50000000  0.33333333  0.50000000       0.009
   0.16666667  0.50000000  0.00000000       0.009
   0.33333333 -0.16666667 -0.16666667       0.009
   0.50000000  0.50000000  0.33333333       0.009
   0.00000000  0.16666667  0.50000000       0.009
  -0.16666667  0.33333333 -0.16666667       0.009
   0.33333333  0.50000000  0.50000000       0.009
   0.50000000  0.00000000  0.16666667       0.009
  -0.33333333  0.16666667  0.00000000       0.009
   0.00000000 -0.33333333  0.16666667       0.009
   0.16666667  0.00000000 -0.33333333       0.009
   0.16666667  0.16666667  0.50000000       0.009
  -0.33333333  0.50000000 -0.33333333       0.009
   0.16666667 -0.33333333  0.00000000       0.009
   0.50000000 -0.16666667 -0.16666667       0.009
  -0.33333333 -0.33333333  0.50000000       0.009
   0.00000000  0.16666667 -0.33333333       0.009
  -0.16666667  0.50000000 -0.16666667       0.009
   0.50000000 -0.33333333 -0.33333333       0.009
  -0.33333333  0.00000000  0.16666667       0.009
  -0.16666667  0.16666667  0.00000000       0.009
   0.00000000 -0.16666667  0.16666667       0.009
   0.16666667  0.00000000 -0.16666667       0.009
   0.16666667  0.16666667  0.33333333       0.009
  -0.16666667 -0.33333333 -0.16666667       0.009
  -0.33333333 -0.16666667 -0.16666667       0.009
   0.33333333  0.33333333  0.00000000       0.009
   0.00000000  0.33333333  0.33333333       0.009
   0.33333333  0.00000000  0.33333333       0.009
   0.50000000  0.33333333  0.00000000       0.009
   0.00000000  0.50000000  0.33333333       0.009
   0.33333333  0.00000000  0.50000000       0.009
   0.33333333  0.33333333 -0.16666667       0.009
   0.50000000  0.16666667  0.50000000       0.009
   0.33333333  0.50000000  0.00000000       0.009
   0.16666667 -0.33333333 -0.33333333       0.009
   0.50000000  0.50000000  0.16666667       0.009
   0.00000000  0.33333333  0.50000000       0.009
  -0.33333333  0.16666667 -0.33333333       0.009
   0.16666667  0.50000000  0.50000000       0.009
   0.50000000  0.00000000  0.33333333       0.009
  -0.33333333  0.33333333  0.00000000       0.009
   0.00000000 -0.33333333  0.33333333       0.009
   0.33333333  0.00000000 -0.33333333       0.009
   0.33333333  0.33333333 -0.33333333       0.009
  -0.33333333  0.33333333 -0.33333333       0.009
   0.33333333 -0.33333333 -0.33333333       0.009
   0.50000000  0.50000000  0.00000000       0.005
   0.00000000  0.50000000  0.50000000       0.005
   0.50000000  0.00000000  0.50000000       0.005
   0.50000000  0.33333333  0.16666667       0.009
   0.16666667  0.50000000  0.33333333       0.009
   0.33333333  0.16666667  0.50000000       0.009
   0.33333333  0.16666667 -0.16666667       0.009
   0.50000000  0.16666667  0.33333333       0.009
   0.16666667 -0.33333333 -0.16666667       0.009
   0.16666667  0.33333333 -0.16666667       0.009
   0.16666667 -0.16666667 -0.33333333       0.009
   0.33333333  0.50000000  0.16666667       0.009
  -0.16666667  0.16666667 -0.33333333       0.009
  -0.33333333  0.16666667 -0.16666667       0.009
   0.16666667  0.33333333  0.50000000       0.009
  -0.33333333  0.33333333  0.16666667       0.009
   0.16666667 -0.33333333  0.33333333       0.009
   0.33333333  0.16666667 -0.33333333       0.009
  -0.33333333  0.33333333  0.50000000       0.009
   0.16666667  0.50000000 -0.16666667       0.009
   0.33333333 -0.16666667 -0.33333333       0.009
   0.50000000 -0.33333333  0.33333333       0.009
  -0.16666667  0.16666667  0.50000000       0.009
  -0.33333333  0.33333333 -0.16666667       0.009
   0.33333333  0.50000000 -0.33333333       0.009
   0.50000000 -0.16666667  0.16666667       0.009
  -0.16666667 -0.33333333  0.33333333       0.009
  -0.33333333  0.50000000  0.16666667       0.009
   0.16666667 -0.33333333  0.50000000       0.009
   0.50000000  0.16666667 -0.33333333       0.009
   0.50000000  0.33333333 -0.16666667       0.009
  -0.33333333  0.16666667  0.50000000       0.009
   0.16666667  0.50000000 -0.33333333       0.009
 
 position of ions in fractional coordinates (direct lattice) 
   0.00000000  0.00000000  0.00000000
 
 position of ions in cartesian coordinates  (Angst):
   0.00000000  0.00000000  0.00000000
 


--------------------------------------------------------------------------------------------------------


 k-point   1 :   0.0000 0.0000 0.0000  plane waves:     283
 k-point   2 :   0.1667 0.0000 0.0000  plane waves:     289
 k-point   3 :   0.0000 0.1667 0.0000  plane waves:     289
 k-point   4 :   0.0000 0.0000 0.1667  plane waves:     289
 k-point   5 :   0.1667 0.1667 0.1667  plane waves:     289
 k-point   6 :   0.3333 0.0000 0.0000  plane waves:     287
 k-point   7 :   0.0000 0.3333 0.0000  plane waves:     287
 k-point   8 :   0.0000 0.0000 0.3333  plane waves:     287
 k-point   9 :   0.3333 0.3333 0.3333  plane waves:     287
 k-point  10 :   0.5000 0.0000 0.0000  plane waves:     272
 k-point  11 :   0.0000 0.5000 0.0000  plane waves:     272
 k-point  12 :   0.0000 0.0000 0.5000  plane waves:     272
 k-point  13 :   0.5000 0.5000 0.5000  plane waves:     272
 k-point  14 :   0.1667 0.1667 0.0000  plane waves:     295
 k-point  15 :   0.0000 0.1667 0.1667  plane waves:     295
 k-point  16 :   0.1667 0.0000 0.1667  plane waves:     295
 k-point  17 :   0.3333 0.1667 0.0000  plane waves:     291
 k-point  18 :   0.0000 0.3333 0.1667  plane waves:     291
 k-point  19 :   0.1667 0.0000 0.3333  plane waves:     291
 k-point  20 :   0.1667 0.1667-0.1667  plane waves:     291
 k-point  21 :   0.3333 0.1667 0.3333  plane waves:     291
 k-point  22 :   0.1667 0.3333 0.0000  plane waves:     291
 k-point  23 :   0.1667-0.1667-0.1667  plane waves:     291
 k-point  24 :   0.3333 0.3333 0.1667  plane waves:     291
 k-point  25 :   0.0000 0.1667 0.3333  plane waves:     291
 k-point  26 :  -0.1667 0.1667-0.1667  plane waves:     291
 k-point  27 :   0.1667 0.3333 0.3333  plane waves:     291
 k-point  28 :   0.3333 0.0000 0.1667  plane waves:     291
 k-point  29 :   0.5000 0.1667 0.0000  plane waves:     283
 k-point  30 :   0.0000 0.5000 0.1667  plane waves:     283
 k-point  31 :   0.1667 0.0000 0.5000  plane waves:     283
 k-point  32 :   0.1667 0.1667-0.3333  plane waves:     283
 k-point  33 :   0.5000 0.3333 0.5000  plane waves:     283
 k-point  34 :   0.1667 0.5000 0.0000  plane waves:     283
 k-point  35 :   0.3333-0.1667-0.1667  plane waves:     283
 k-point  36 :   0.5000 0.5000 0.3333  plane waves:     283
 k-point  37 :   0.0000 0.1667 0.5000  plane waves:     283
 k-point  38 :  -0.1667 0.3333-0.1667  plane waves:     283
 k-point  39 :   0.3333 0.5000 0.5000  plane waves:     283
 k-point  40 :   0.5000 0.0000 0.1667  plane waves:     283
 k-point  41 :  -0.3333 0.1667 0.0000  plane waves:     284
 k-point  42 :   0.0000-0.3333 0.1667  plane waves:     284
 k-point  43 :   0.1667 0.0000-0.3333  plane waves:     284
 k-point  44 :   0.1667 0.1667 0.5000  plane waves:     284
 k-point  45 :  -0.3333 0.5000-0.3333  plane waves:     284
 k-point  46 :   0.1667-0.3333 0.0000  plane waves:     284
 k-point  47 :   0.5000-0.1667-0.1667  plane waves:     284
 k-point  48 :  -0.3333-0.3333 0.5000  plane waves:     284
 k-point  49 :   0.0000 0.1667-0.3333  plane waves:     284
 k-point  50 :  -0.1667 0.5000-0.1667  plane waves:     284
 k-point  51 :   0.5000-0.3333-0.3333  plane waves:     284
 k-point  52 :  -0.3333 0.0000 0.1667  plane waves:     284
 k-point  53 :  -0.1667 0.1667 0.0000  plane waves:     295
 k-point  54 :   0.0000-0.1667 0.1667  plane waves:     295
 k-point  55 :   0.1667 0.0000-0.1667  plane waves:     295
 k-point  56 :   0.1667 0.1667 0.3333  plane waves:     295
 k-point  57 :  -0.1667-0.3333-0.1667  plane waves:     295
 k-point  58 :  -0.3333-0.1667-0.1667  plane waves:     295
 k-point  59 :   0.3333 0.3333 0.0000  plane waves:     290
 k-point  60 :   0.0000 0.3333 0.3333  plane waves:     290
 k-point  61 :   0.3333 0.0000 0.3333  plane waves:     290
 k-point  62 :   0.5000 0.3333 0.0000  plane waves:     280
 k-point  63 :   0.0000 0.5000 0.3333  plane waves:     280
 k-point  64 :   0.3333 0.0000 0.5000  plane waves:     280
 k-point  65 :   0.3333 0.3333-0.1667  plane waves:     280
 k-point  66 :   0.5000 0.1667 0.5000  plane waves:     280
 k-point  67 :   0.3333 0.5000 0.0000  plane waves:     280
 k-point  68 :   0.1667-0.3333-0.3333  plane waves:     280
 k-point  69 :   0.5000 0.5000 0.1667  plane waves:     280
 k-point  70 :   0.0000 0.3333 0.5000  plane waves:     280
 k-point  71 :  -0.3333 0.1667-0.3333  plane waves:     280
 k-point  72 :   0.1667 0.5000 0.5000  plane waves:     280
 k-point  73 :   0.5000 0.0000 0.3333  plane waves:     280
 k-point  74 :  -0.3333 0.3333 0.0000  plane waves:     284
 k-point  75 :   0.0000-0.3333 0.3333  plane waves:     284
 k-point  76 :   0.3333 0.0000-0.3333  plane waves:     284
 k-point  77 :   0.3333 0.3333-0.3333  plane waves:     284
 k-point  78 :  -0.3333 0.3333-0.3333  plane waves:     284
 k-point  79 :   0.3333-0.3333-0.3333  plane waves:     284
 k-point  80 :   0.5000 0.5000 0.0000  plane waves:     302
 k-point  81 :   0.0000 0.5000 0.5000  plane waves:     302
 k-point  82 :   0.5000 0.0000 0.5000  plane waves:     302
 k-point  83 :   0.5000 0.3333 0.1667  plane waves:     288
 k-point  84 :   0.1667 0.5000 0.3333  plane waves:     288
 k-point  85 :   0.3333 0.1667 0.5000  plane waves:     288
 k-point  86 :   0.3333 0.1667-0.1667  plane waves:     288
 k-point  87 :   0.5000 0.1667 0.3333  plane waves:     288
 k-point  88 :   0.1667-0.3333-0.1667  plane waves:     288
 k-point  89 :   0.1667 0.3333-0.1667  plane waves:     288
 k-point  90 :   0.1667-0.1667-0.3333  plane waves:     288
 k-point  91 :   0.3333 0.5000 0.1667  plane waves:     288
 k-point  92 :  -0.1667 0.1667-0.3333  plane waves:     288
 k-point  93 :  -0.3333 0.1667-0.1667  plane waves:     288
 k-point  94 :   0.1667 0.3333 0.5000  plane waves:     288
 k-point  95 :  -0.3333 0.3333 0.1667  plane waves:     282
 k-point  96 :   0.1667-0.3333 0.3333  plane waves:     282
 k-point  97 :   0.3333 0.1667-0.3333  plane waves:     282
 k-point  98 :  -0.3333 0.3333 0.5000  plane waves:     282
 k-point  99 :   0.1667 0.5000-0.1667  plane waves:     282
 k-point 100 :   0.3333-0.1667-0.3333  plane waves:     282
 k-point 101 :   0.5000-0.3333 0.3333  plane waves:     282
 k-point 102 :  -0.1667 0.1667 0.5000  plane waves:     282
 k-point 103 :  -0.3333 0.3333-0.1667  plane waves:     282
 k-point 104 :   0.3333 0.5000-0.3333  plane waves:     282
 k-point 105 :   0.5000-0.1667 0.1667  plane waves:     282
 k-point 106 :  -0.1667-0.3333 0.3333  plane waves:     282
 k-point 107 :  -0.3333 0.5000 0.1667  plane waves:     282
 k-point 108 :   0.1667-0.3333 0.5000  plane waves:     282
 k-point 109 :   0.5000 0.1667-0.3333  plane waves:     282
 k-point 110 :   0.5000 0.3333-0.1667  plane waves:     282
 k-point 111 :  -0.3333 0.1667 0.5000  plane waves:     282
 k-point 112 :   0.1667 0.5000-0.3333  plane waves:     282

 maximum and minimum number of plane-waves per node :        82       61

 maximum number of plane-waves:       302
 maximum index in each direction: 
   IXMAX=    4   IYMAX=    4   IZMAX=    4
   IXMIN=   -5   IYMIN=   -5   IZMIN=   -5


 parallel 3D FFT for wavefunctions:
    minimum data exchange during FFTs selected (reduces bandwidth)
 parallel 3D FFT for charge:
    minimum data exchange during FFTs selected (reduces bandwidth)


 total amount of memory used by VASP MPI-rank0    32121. kBytes
=======================================================================

   base      :      30000. kBytes
   nonl-proj :       1356. kBytes
   fftplans  :         80. kBytes
   grid      :        111. kBytes
   one-center:         15. kBytes
   wavefun   :        559. kBytes
 
     INWAV:  cpu time    0.0000: real time    0.0000
 Broyden mixing: mesh for mixing (old mesh)
   NGX =  9   NGY =  9   NGZ =  9
  (NGX  = 28   NGY  = 28   NGZ  = 28)
  gives a total of    729 points

 initial charge density was supplied:
 charge density of overlapping atoms calculated
 number of electron      10.0000000 magnetization 
 keeping initial charge density in first step


--------------------------------------------------------------------------------------------------------


 Maximum index for augmentation-charges           758 (set IRDMAX)


--------------------------------------------------------------------------------------------------------


 First call to EWALD:  gamma=   0.725
 Maximum number of real-space cells 3x 3x 3
 Maximum number of reciprocal cells 3x 3x 3

    FEWALD:  cpu time    0.0010: real time    0.0010


--------------------------------------- Iteration      1(   1)  ---------------------------------------


    POTLOK:  cpu time    0.0040: real time    0.0041
    SETDIJ:  cpu time    0.0053: real time    0.0053
     EDDAV:  cpu time    0.4383: real time    0.4389
       DOS:  cpu time    0.0015: real time    0.0015
    --------------------------------------------
      LOOP:  cpu time    0.4491: real time    0.4498

 eigenvalue-minimisations  :  2840
 total energy-change (2. order) : 0.3491091E+02  (-0.4658366E+03)
 number of electron      10.0000000 magnetization 
 augmentation part       10.0000000 magnetization 

 Free energy of the ion-electron system (eV)
  ---------------------------------------------------
  alpha Z        PSCENC =        65.06168483
  Ewald energy   TEWEN  =      -850.63678614
  -Hartree energ DENC   =       -68.76896203
  -exchange      EXHF   =         0.00000000
  -V(xc)+E(xc)   XCENC  =         3.69683129
  PAW double counting   =       696.70595042     -667.45827301
  entropy T*S    EENTRO =        -0.00069929
  eigenvalues    EBANDS =       127.99195452
  atomic energy  EATOM  =       728.31920932
  Solvation  Ediel_sol  =         0.00000000
  ---------------------------------------------------
  free energy    TOTEN  =        34.91090991 eV

  energy without entropy =       34.91160920  energy(sigma->0) =       34.91125956


--------------------------------------------------------------------------------------------------------




--------------------------------------- Iteration      1(   2)  ---------------------------------------


     EDDAV:  cpu time    0.4671: real time    0.4704
       DOS:  cpu time    0.0015: real time    0.0015
    --------------------------------------------
      LOOP:  cpu time    0.4686: real time    0.4720

 eigenvalue-minimisations  :  3256
 total energy-change (2. order) :-0.4022094E+02  (-0.3822717E+02)
 number of electron      10.0000000 magnetization 
 augmentation part       10.0000000 magnetization 

 Free energy of the ion-electron system (eV)
  ---------------------------------------------------
  alpha Z        PSCENC =        65.06168483
  Ewald energy   TEWEN  =      -850.63678614
  -Hartree energ DENC   =       -68.76896203
  -exchange      EXHF   =         0.00000000
  -V(xc)+E(xc)   XCENC  =         3.69683129
  PAW double counting   =       696.70595042     -667.45827301
  entropy T*S    EENTRO =        -0.00136332
  eigenvalues    EBANDS =        87.77168259
  atomic energy  EATOM  =       728.31920932
  Solvation  Ediel_sol  =         0.00000000
  ---------------------------------------------------
  free energy    TOTEN  =        -5.31002604 eV

  energy without entropy =       -5.30866272  energy(sigma->0) =       -5.30934438


--------------------------------------------------------------------------------------------------------




--------------------------------------- Iteration      1(   3)  ---------------------------------------


     EDDAV:  cpu time    0.4893: real time    0.4900
       DOS:  cpu time    0.0015: real time    0.0015
    --------------------------------------------
      LOOP:  cpu time    0.4908: real time    0.4915

 eigenvalue-minimisations  :  3340
 total energy-change (2. order) :-0.5178577E+00  (-0.5169981E+00)
 number of electron      10.0000000 magnetization 
 augmentation part       10.0000000 magnetization 

 Free energy of the ion-electron system (eV)
  ---------------------------------------------------
  alpha Z        PSCENC =        65.06168483
  Ewald energy   TEWEN  =      -850.63678614
  -Hartree energ DENC   =       -68.76896203
  -exchange      EXHF   =         0.00000000
  -V(xc)+E(xc)   XCENC  =         3.69683129
  PAW double counting   =       696.70595042     -667.45827301
  entropy T*S    EENTRO =        -0.00167379
  eigenvalues    EBANDS =        87.25413535
  atomic energy  EATOM  =       728.31920932
  Solvation  Ediel_sol  =         0.00000000
  ---------------------------------------------------
  free energy    TOTEN  =        -5.82788377 eV

  energy without entropy =       -5.82620997  energy(sigma->0) =       -5.82704687


--------------------------------------------------------------------------------------------------------




--------------------------------------- Iteration      1(   4)  ---------------------------------------


     EDDAV:  cpu time    0.4827: real time    0.4833
       DOS:  cpu time    0.0014: real time    0.0014
    --------------------------------------------
      LOOP:  cpu time    0.4841: real time    0.4847

 eigenvalue-minimisations  :  3328
 total energy-change (2. order) :-0.2041265E-02  (-0.2041123E-02)
 number of electron      10.0000000 magnetization 
 augmentation part       10.0000000 magnetization 

 Free energy of the ion-electron system (eV)
  ---------------------------------------------------
  alpha Z        PSCENC =        65.06168483
  Ewald energy   TEWEN  =      -850.63678614
  -Hartree energ DENC   =       -68.76896203
  -exchange      EXHF   =         0.00000000
  -V(xc)+E(xc)   XCENC  =         3.69683129
  PAW double counting   =       696.70595042     -667.45827301
  entropy T*S    EENTRO =        -0.00167172
  eigenvalues    EBANDS =        87.25209200
  atomic energy  EATOM  =       728.31920932
  Solvation  Ediel_sol  =         0.00000000
  ---------------------------------------------------
  free energy    TOTEN  =        -5.82992503 eV

  energy without entropy =       -5.82825331  energy(sigma->0) =       -5.82908917


--------------------------------------------------------------------------------------------------------




--------------------------------------- Iteration      1(   5)  ---------------------------------------


     EDDAV:  cpu time    0.4807: real time    0.4823
       DOS:  cpu time    0.0015: real time    0.0015
    CHARGE:  cpu time    0.0076: real time    0.0076
    MIXING:  cpu time    0.0006: real time    0.0006
    --------------------------------------------
      LOOP:  cpu time    0.4904: real time    0.4919

 eigenvalue-minimisations  :  3400
 total energy-change (2. order) :-0.1564998E-04  (-0.1565092E-04)
 number of electron      10.0000005 magnetization 
 augmentation part        2.9325023 magnetization 

 Broyden mixing:
  rms(total) = 0.13642E+01    rms(broyden)= 0.13642E+01
  rms(prec ) = 0.19778E+01
  weight for this iteration     100.00

 Free energy of the ion-electron system (eV)
  ---------------------------------------------------
  alpha Z        PSCENC =        65.06168483
  Ewald energy   TEWEN  =      -850.63678614
  -Hartree energ DENC   =       -68.76896203
  -exchange      EXHF   =         0.00000000
  -V(xc)+E(xc)   XCENC  =         3.69683129
  PAW double counting   =       696.70595042     -667.45827301
  entropy T*S    EENTRO =        -0.00167169
  eigenvalues    EBANDS =        87.25207633
  atomic energy  EATOM  =       728.31920932
  Solvation  Ediel_sol  =         0.00000000
  ---------------------------------------------------
  free energy    TOTEN  =        -5.82994068 eV

  energy without entropy =       -5.82826899  energy(sigma->0) =       -5.82910483


--------------------------------------------------------------------------------------------------------




--------------------------------------- Iteration      1(   6)  ---------------------------------------


    POTLOK:  cpu time    0.0035: real time    0.0035
    SETDIJ:  cpu time    0.0043: real time    0.0043
     EDDAV:  cpu time    0.4512: real time    0.4518
       DOS:  cpu time    0.0015: real time    0.0015
    CHARGE:  cpu time    0.0070: real time    0.0070
    MIXING:  cpu time    0.0004: real time    0.0004
    --------------------------------------------
      LOOP:  cpu time    0.4679: real time    0.4685

 eigenvalue-minimisations  :  3028
 total energy-change (2. order) : 0.2957142E+00  (-0.5464783E-01)
 number of electron      10.0000006 magnetization 
 augmentation part        3.0363231 magnetization 

 Broyden mixing:
  rms(total) = 0.72889E+00    rms(broyden)= 0.72889E+00
  rms(prec ) = 0.88654E+00
  weight for this iteration     100.00

 eigenvalues of (default mixing * dielectric matrix)
  average eigenvalue GAMMA=   2.0731
  2.0731

 Free energy of the ion-electron system (eV)
  ---------------------------------------------------
  alpha Z        PSCENC =        65.06168483
  Ewald energy   TEWEN  =      -850.63678614
  -Hartree energ DENC   =       -62.36023544
  -exchange      EXHF   =         0.00000000
  -V(xc)+E(xc)   XCENC  =         3.49587201
  PAW double counting   =       803.91024716     -776.30487598
  entropy T*S    EENTRO =        -0.00199000
  eigenvalues    EBANDS =        82.98264773
  atomic energy  EATOM  =       728.31920932
  Solvation  Ediel_sol  =         0.00000000
  ---------------------------------------------------
  free energy    TOTEN  =        -5.53422651 eV

  energy without entropy =       -5.53223651  energy(sigma->0) =       -5.53323151


--------------------------------------------------------------------------------------------------------




--------------------------------------- Iteration      1(   7)  ---------------------------------------


    POTLOK:  cpu time    0.0034: real time    0.0034
    SETDIJ:  cpu time    0.0038: real time    0.0039
     EDDAV:  cpu time    0.4681: real time    0.4688
       DOS:  cpu time    0.0014: real time    0.0014
    CHARGE:  cpu time    0.0077: real time    0.0077
    MIXING:  cpu time    0.0004: real time    0.0004
    --------------------------------------------
      LOOP:  cpu time    0.4849: real time    0.4856

 eigenvalue-minimisations  :  3236
 total energy-change (2. order) : 0.4465422E-01  (-0.1563491E-01)
 number of electron      10.0000006 magnetization 
 augmentation part        3.0923334 magnetization 

 Broyden mixing:
  rms(total) = 0.23197E+00    rms(broyden)= 0.23197E+00
  rms(prec ) = 0.23643E+00
  weight for this iteration     100.00

 eigenvalues of (default mixing * dielectric matrix)
  average eigenvalue GAMMA=   2.2023
  1.4367  2.9678

 Free energy of the ion-electron system (eV)
  ---------------------------------------------------
  alpha Z        PSCENC =        65.06168483
  Ewald energy   TEWEN  =      -850.63678614
  -Hartree energ DENC   =       -58.67335791
  -exchange      EXHF   =         0.00000000
  -V(xc)+E(xc)   XCENC  =         3.38533293
  PAW double counting   =       914.83283871     -888.57660221
  entropy T*S    EENTRO =        -0.00199077
  eigenvalues    EBANDS =        80.80009896
  atomic energy  EATOM  =       728.31920932
  Solvation  Ediel_sol  =         0.00000000
  ---------------------------------------------------
  free energy    TOTEN  =        -5.48957229 eV

  energy without entropy =       -5.48758153  energy(sigma->0) =       -5.48857691


--------------------------------------------------------------------------------------------------------




--------------------------------------- Iteration      1(   8)  ---------------------------------------


    POTLOK:  cpu time    0.0033: real time    0.0033
    SETDIJ:  cpu time    0.0038: real time    0.0038
     EDDAV:  cpu time    0.4563: real time    0.4572
       DOS:  cpu time    0.0015: real time    0.0015
    CHARGE:  cpu time    0.0068: real time    0.0068
    MIXING:  cpu time    0.0003: real time    0.0003
    --------------------------------------------
      LOOP:  cpu time    0.4720: real time    0.4728

 eigenvalue-minimisations  :  2928
 total energy-change (2. order) : 0.3203438E-02  (-0.7002247E-03)
 number of electron      10.0000006 magnetization 
 augmentation part        3.0841703 magnetization 

 Broyden mixing:
  rms(total) = 0.60915E-01    rms(broyden)= 0.60915E-01
  rms(prec ) = 0.61097E-01
  weight for this iteration     100.00

 eigenvalues of (default mixing * dielectric matrix)
  average eigenvalue GAMMA=   1.6101
  2.5988  1.4254  0.8062

 Free energy of the ion-electron system (eV)
  ---------------------------------------------------
  alpha Z        PSCENC =        65.06168483
  Ewald energy   TEWEN  =      -850.63678614
  -Hartree energ DENC   =       -58.56177313
  -exchange      EXHF   =         0.00000000
  -V(xc)+E(xc)   XCENC  =         3.38231105
  PAW double counting   =       977.66784348     -951.98913927
  entropy T*S    EENTRO =        -0.00195919
  eigenvalues    EBANDS =        81.27224019
  atomic energy  EATOM  =       728.31920932
  Solvation  Ediel_sol  =         0.00000000
  ---------------------------------------------------
  free energy    TOTEN  =        -5.48636886 eV

  energy without entropy =       -5.48440967  energy(sigma->0) =       -5.48538926


--------------------------------------------------------------------------------------------------------




--------------------------------------- Iteration      1(   9)  ---------------------------------------


    POTLOK:  cpu time    0.0032: real time    0.0032
    SETDIJ:  cpu time    0.0037: real time    0.0037
     EDDAV:  cpu time    0.4551: real time    0.4558
       DOS:  cpu time    0.0014: real time    0.0014
    CHARGE:  cpu time    0.0069: real time    0.0070
    MIXING:  cpu time    0.0003: real time    0.0003
    --------------------------------------------
      LOOP:  cpu time    0.4706: real time    0.4714

 eigenvalue-minimisations  :  3060
 total energy-change (2. order) : 0.2369516E-03  (-0.1396448E-04)
 number of electron      10.0000006 magnetization 
 augmentation part        3.0853538 magnetization 

 Broyden mixing:
  rms(total) = 0.57257E-02    rms(broyden)= 0.57256E-02
  rms(prec ) = 0.62488E-02
  weight for this iteration     100.00

 eigenvalues of (default mixing * dielectric matrix)
  average eigenvalue GAMMA=   2.0029
  0.9940  1.4034  3.0644  2.5499

 Free energy of the ion-electron system (eV)
  ---------------------------------------------------
  alpha Z        PSCENC =        65.06168483
  Ewald energy   TEWEN  =      -850.63678614
  -Hartree energ DENC   =       -58.61113538
  -exchange      EXHF   =         0.00000000
  -V(xc)+E(xc)   XCENC  =         3.38380783
  PAW double counting   =       966.03383805     -940.23306380
  entropy T*S    EENTRO =        -0.00196528
  eigenvalues    EBANDS =        81.19827866
  atomic energy  EATOM  =       728.31920932
  Solvation  Ediel_sol  =         0.00000000
  ---------------------------------------------------
  free energy    TOTEN  =        -5.48613190 eV

  energy without entropy =       -5.48416662  energy(sigma->0) =       -5.48514926


--------------------------------------------------------------------------------------------------------




--------------------------------------- Iteration      1(  10)  ---------------------------------------


    POTLOK:  cpu time    0.0032: real time    0.0032
    SETDIJ:  cpu time    0.0037: real time    0.0037
     EDDAV:  cpu time    0.3131: real time    0.3163
       DOS:  cpu time    0.0014: real time    0.0014
    --------------------------------------------
      LOOP:  cpu time    0.3214: real time    0.3246

 eigenvalue-minimisations  :  1452
 total energy-change (2. order) :-0.3446387E-05  (-0.5420146E-06)
 number of electron      10.0000006 magnetization 
 augmentation part        3.0853538 magnetization 

 Free energy of the ion-electron system (eV)
  ---------------------------------------------------
  alpha Z        PSCENC =        65.06168483
  Ewald energy   TEWEN  =      -850.63678614
  -Hartree energ DENC   =       -58.61999657
  -exchange      EXHF   =         0.00000000
  -V(xc)+E(xc)   XCENC  =         3.38422195
  PAW double counting   =       966.43893353     -940.61323301
  entropy T*S    EENTRO =        -0.00196323
  eigenvalues    EBANDS =        81.18179397
  atomic energy  EATOM  =       728.31920932
  Solvation  Ediel_sol  =         0.00000000
  ---------------------------------------------------
  free energy    TOTEN  =        -5.48613535 eV

  energy without entropy =       -5.48417212  energy(sigma->0) =       -5.48515373


--------------------------------------------------------------------------------------------------------




 average (electrostatic) potential at core
  the test charge radii are     1.2059
  (the norm of the test charge is              1.0000)
       1 -62.4349
 
 
 
 E-fermi :  11.9771     XC(G=0): -13.6371     alpha+bet :-17.1491

 Fermi energy:        11.9770552241

 k-point     1 :       0.0000    0.0000    0.0000
  band No.  band energies     occupation 
      1       1.4183      2.00000
      2       7.9532      2.00000
      3       7.9533      2.00000
      4       7.9533      2.00000
      5      10.2166      2.00000
      6      10.2166      2.00000
      7      26.4926      0.00000
      8      31.6539      0.00000
      9      31.6542      0.00000
     10      31.6542      0.00000
     11      37.1137      0.00000
     12      44.4096      0.00000

 k-point     2 :       0.1667    0.0000    0.0000
  band No.  band energies     occupation 
      1       2.4958      2.00000
      2       7.5740      2.00000
      3       8.2948      2.00000
      4       8.2950      2.00000
      5      10.1027      2.00000
      6      10.1027      2.00000
      7      27.9822      0.00000
      8      27.9976      0.00000
      9      33.3651      0.00000
     10      33.3653      0.00000
     11      37.3636      0.00000
     12      40.1335      0.00000

 k-point     3 :       0.0000    0.1667    0.0000
  band No.  band energies     occupation 
      1       2.4958      2.00000
      2       7.5740      2.00000
      3       8.2948      2.00000
      4       8.2950      2.00000
      5      10.1027      2.00000
      6      10.1027      2.00000
      7      27.9822      0.00000
      8      27.9976      0.00000
      9      33.3651      0.00000
     10      33.3653      0.00000
     11      37.3636      0.00000
     12      40.1335      0.00000

 k-point     4 :       0.0000    0.0000    0.1667
  band No.  band energies     occupation 
      1       2.4958      2.00000
      2       7.5740      2.00000
      3       8.2948      2.00000
      4       8.2950      2.00000
      5      10.1027      2.00000
      6      10.1027      2.00000
      7      27.9822      0.00000
      8      27.9976      0.00000
      9      33.3651      0.00000
     10      33.3653      0.00000
     11      37.3636      0.00000
     12      40.1335      0.00000

 k-point     5 :       0.1667    0.1667    0.1667
  band No.  band energies     occupation 
      1       2.4958      2.00000
      2       7.5739      2.00000
      3       8.2949      2.00000
      4       8.2949      2.00000
      5      10.1028      2.00000
      6      10.1028      2.00000
      7      27.9822      0.00000
      8      27.9974      0.00000
      9      33.3653      0.00000
     10      33.3653      0.00000
     11      37.3635      0.00000
     12      40.1334      0.00000

 k-point     6 :       0.3333    0.0000    0.0000
  band No.  band energies     occupation 
      1       4.1616      2.00000
      2       8.1561      2.00000
      3       8.1563      2.00000
      4       8.5076      2.00000
      5      11.0559      2.00000
      6      11.0559      2.00000
      7      22.5284      0.00000
      8      27.3663      0.00000
      9      33.7067      0.00000
     10      33.7070      0.00000
     11      37.2930      0.00000
     12      37.9735      0.00000

 k-point     7 :       0.0000    0.3333    0.0000
  band No.  band energies     occupation 
      1       4.1616      2.00000
      2       8.1561      2.00000
      3       8.1563      2.00000
      4       8.5076      2.00000
      5      11.0559      2.00000
      6      11.0559      2.00000
      7      22.5284      0.00000
      8      27.3663      0.00000
      9      33.7067      0.00000
     10      33.7069      0.00000
     11      37.2930      0.00000
     12      37.9734      0.00000

 k-point     8 :       0.0000    0.0000    0.3333
  band No.  band energies     occupation 
      1       4.1616      2.00000
      2       8.1561      2.00000
      3       8.1563      2.00000
      4       8.5076      2.00000
      5      11.0559      2.00000
      6      11.0559      2.00000
      7      22.5284      0.00000
      8      27.3663      0.00000
      9      33.7067      0.00000
     10      33.7070      0.00000
     11      37.2930      0.00000
     12      37.9735      0.00000

 k-point     9 :       0.3333    0.3333    0.3333
  band No.  band energies     occupation 
      1       4.1616      2.00000
      2       8.1562      2.00000
      3       8.1562      2.00000
      4       8.5075      2.00000
      5      11.0559      2.00000
      6      11.0559      2.00000
      7      22.5282      0.00000
      8      27.3663      0.00000
      9      33.7069      0.00000
     10      33.7070      0.00000
     11      37.2929      0.00000
     12      37.9735      0.00000

 k-point    10 :       0.5000    0.0000    0.0000
  band No.  band energies     occupation 
      1       4.3031      2.00000
      2       7.8828      2.00000
      3       7.8830      2.00000
      4      11.3827      2.00000
      5      11.9729      1.09329
      6      11.9730      1.09185
      7      18.0605      0.00000
      8      26.0761      0.00000
      9      31.1731      0.00000
     10      31.1732      0.00000
     11      40.9230      0.00000
     12      40.9230      0.00000

 k-point    11 :       0.0000    0.5000    0.0000
  band No.  band energies     occupation 
      1       4.3031      2.00000
      2       7.8829      2.00000
      3       7.8830      2.00000
      4      11.3827      2.00000
      5      11.9729      1.09324
      6      11.9730      1.09181
      7      18.0605      0.00000
      8      26.0761      0.00000
      9      31.1731      0.00000
     10      31.1732      0.00000
     11      40.9229      0.00000
     12      40.9230      0.00000

 k-point    12 :       0.0000    0.0000    0.5000
  band No.  band energies     occupation 
      1       4.3031      2.00000
      2       7.8829      2.00000
      3       7.8830      2.00000
      4      11.3827      2.00000
      5      11.9729      1.09326
      6      11.9730      1.09184
      7      18.0605      0.00000
      8      26.0761      0.00000
      9      31.1730      0.00000
     10      31.1732      0.00000
     11      40.9229      0.00000
     12      40.9230      0.00000

 k-point    13 :       0.5000    0.5000    0.5000
  band No.  band energies     occupation 
      1       4.3030      2.00000
      2       7.8829      2.00000
      3       7.8829      2.00000
      4      11.3826      2.00000
      5      11.9729      1.09311
      6      11.9729      1.09304
      7      18.0603      0.00000
      8      26.0762      0.00000
      9      31.1733      0.00000
     10      31.1733      0.00000
     11      40.9231      0.00000
     12      40.9231      0.00000

 k-point    14 :       0.1667    0.1667    0.0000
  band No.  band energies     occupation 
      1       2.8694      2.00000
      2       7.0571      2.00000
      3       8.7466      2.00000
      4       8.7467      2.00000
      5       9.2497      2.00000
      6      10.6073      2.00000
      7      28.7696      0.00000
      8      29.8288      0.00000
      9      31.4033      0.00000
     10      31.4035      0.00000
     11      38.8157      0.00000
     12      39.1816      0.00000

 k-point    15 :       0.0000    0.1667    0.1667
  band No.  band energies     occupation 
      1       2.8694      2.00000
      2       7.0571      2.00000
      3       8.7466      2.00000
      4       8.7467      2.00000
      5       9.2497      2.00000
      6      10.6073      2.00000
      7      28.7696      0.00000
      8      29.8288      0.00000
      9      31.4032      0.00000
     10      31.4035      0.00000
     11      38.8157      0.00000
     12      39.1815      0.00000

 k-point    16 :       0.1667    0.0000    0.1667
  band No.  band energies     occupation 
      1       2.8694      2.00000
      2       7.0571      2.00000
      3       8.7467      2.00000
      4       8.7467      2.00000
      5       9.2497      2.00000
      6      10.6073      2.00000
      7      28.7696      0.00000
      8      29.8288      0.00000
      9      31.4033      0.00000
     10      31.4034      0.00000
     11      38.8157      0.00000
     12      39.1816      0.00000

 k-point    17 :       0.3333    0.1667    0.0000
  band No.  band energies     occupation 
      1       4.6030      2.00000
      2       6.7140      2.00000
      3       8.0586      2.00000
      4       9.0841      2.00000
      5      10.8109      2.00000
      6      11.3797      2.00000
      7      25.0656      0.00000
      8      29.1346      0.00000
      9      30.2442      0.00000
     10      32.1712      0.00000
     11      36.8396      0.00000
     12      38.3349      0.00000

 k-point    18 :       0.0000    0.3333    0.1667
  band No.  band energies     occupation 
      1       4.6030      2.00000
      2       6.7140      2.00000
      3       8.0586      2.00000
      4       9.0841      2.00000
      5      10.8109      2.00000
      6      11.3797      2.00000
      7      25.0656      0.00000
      8      29.1346      0.00000
      9      30.2442      0.00000
     10      32.1712      0.00000
     11      36.8396      0.00000
     12      38.3349      0.00000

 k-point    19 :       0.1667    0.0000    0.3333
  band No.  band energies     occupation 
      1       4.6030      2.00000
      2       6.7140      2.00000
      3       8.0586      2.00000
      4       9.0841      2.00000
      5      10.8109      2.00000
      6      11.3797      2.00000
      7      25.0656      0.00000
      8      29.1346      0.00000
      9      30.2442      0.00000
     10      32.1712      0.00000
     11      36.8396      0.00000
     12      38.3349      0.00000

 k-point    20 :       0.1667    0.1667   -0.1667
  band No.  band energies     occupation 
      1       4.6030      2.00000
      2       6.7140      2.00000
      3       8.0586      2.00000
      4       9.0842      2.00000
      5      10.8109      2.00000
      6      11.3797      2.00000
      7      25.0656      0.00000
      8      29.1345      0.00000
      9      30.2444      0.00000
     10      32.1713      0.00000
     11      36.8394      0.00000
     12      38.3350      0.00000

 k-point    21 :       0.3333    0.1667    0.3333
  band No.  band energies     occupation 
      1       4.6030      2.00000
      2       6.7140      2.00000
      3       8.0586      2.00000
      4       9.0841      2.00000
      5      10.8109      2.00000
      6      11.3797      2.00000
      7      25.0654      0.00000
      8      29.1346      0.00000
      9      30.2444      0.00000
     10      32.1712      0.00000
     11      36.8396      0.00000
     12      38.3350      0.00000

 k-point    22 :       0.1667    0.3333    0.0000
  band No.  band energies     occupation 
      1       4.6030      2.00000
      2       6.7140      2.00000
      3       8.0586      2.00000
      4       9.0841      2.00000
      5      10.8109      2.00000
      6      11.3797      2.00000
      7      25.0656      0.00000
      8      29.1346      0.00000
      9      30.2442      0.00000
     10      32.1712      0.00000
     11      36.8396      0.00000
     12      38.3349      0.00000

 k-point    23 :       0.1667   -0.1667   -0.1667
  band No.  band energies     occupation 
      1       4.6030      2.00000
      2       6.7140      2.00000
      3       8.0586      2.00000
      4       9.0842      2.00000
      5      10.8109      2.00000
      6      11.3797      2.00000
      7      25.0655      0.00000
      8      29.1345      0.00000
      9      30.2444      0.00000
     10      32.1713      0.00000
     11      36.8394      0.00000
     12      38.3350      0.00000

 k-point    24 :       0.3333    0.3333    0.1667
  band No.  band energies     occupation 
      1       4.6030      2.00000
      2       6.7140      2.00000
      3       8.0586      2.00000
      4       9.0841      2.00000
      5      10.8109      2.00000
      6      11.3797      2.00000
      7      25.0654      0.00000
      8      29.1346      0.00000
      9      30.2444      0.00000
     10      32.1712      0.00000
     11      36.8396      0.00000
     12      38.3350      0.00000

 k-point    25 :       0.0000    0.1667    0.3333
  band No.  band energies     occupation 
      1       4.6030      2.00000
      2       6.7140      2.00000
      3       8.0586      2.00000
      4       9.0841      2.00000
      5      10.8109      2.00000
      6      11.3797      2.00000
      7      25.0656      0.00000
      8      29.1346      0.00000
      9      30.2442      0.00000
     10      32.1712      0.00000
     11      36.8396      0.00000
     12      38.3349      0.00000

 k-point    26 :      -0.1667    0.1667   -0.1667
  band No.  band energies     occupation 
      1       4.6030      2.00000
      2       6.7140      2.00000
      3       8.0586      2.00000
      4       9.0842      2.00000
      5      10.8109      2.00000
      6      11.3797      2.00000
      7      25.0656      0.00000
      8      29.1345      0.00000
      9      30.2444      0.00000
     10      32.1713      0.00000
     11      36.8394      0.00000
     12      38.3350      0.00000

 k-point    27 :       0.1667    0.3333    0.3333
  band No.  band energies     occupation 
      1       4.6030      2.00000
      2       6.7140      2.00000
      3       8.0586      2.00000
      4       9.0841      2.00000
      5      10.8109      2.00000
      6      11.3797      2.00000
      7      25.0654      0.00000
      8      29.1346      0.00000
      9      30.2444      0.00000
     10      32.1712      0.00000
     11      36.8396      0.00000
     12      38.3350      0.00000

 k-point    28 :       0.3333    0.0000    0.1667
  band No.  band energies     occupation 
      1       4.6030      2.00000
[...]
      1       5.9723      2.00000
      2       6.3647      2.00000
      3       7.3867      2.00000
      4      10.2721      2.00000
      5      10.8388      2.00000
      6      14.0152      0.00000
      7      22.8917      0.00000
      8      25.0140      0.00000
      9      27.9856      0.00000
     10      34.4497      0.00000
     11      34.6691      0.00000
     12      40.9575      0.00000

 k-point    90 :       0.1667   -0.1667   -0.3333
  band No.  band energies     occupation 
      1       5.9723      2.00000
      2       6.3647      2.00000
      3       7.3867      2.00000
      4      10.2721      2.00000
      5      10.8388      2.00000
      6      14.0152      0.00000
      7      22.8917      0.00000
      8      25.0140      0.00000
      9      27.9857      0.00000
     10      34.4497      0.00000
     11      34.6691      0.00000
     12      40.9575      0.00000

 k-point    91 :       0.3333    0.5000    0.1667
  band No.  band energies     occupation 
      1       5.9722      2.00000
      2       6.3648      2.00000
      3       7.3866      2.00000
      4      10.2721      2.00000
      5      10.8388      2.00000
      6      14.0151      0.00000
      7      22.8917      0.00000
      8      25.0140      0.00000
      9      27.9857      0.00000
     10      34.4497      0.00000
     11      34.6692      0.00000
     12      40.9576      0.00000

 k-point    92 :      -0.1667    0.1667   -0.3333
  band No.  band energies     occupation 
      1       5.9723      2.00000
      2       6.3647      2.00000
      3       7.3867      2.00000
      4      10.2721      2.00000
      5      10.8388      2.00000
      6      14.0152      0.00000
      7      22.8917      0.00000
      8      25.0140      0.00000
      9      27.9857      0.00000
     10      34.4497      0.00000
     11      34.6691      0.00000
     12      40.9575      0.00000

 k-point    93 :      -0.3333    0.1667   -0.1667
  band No.  band energies     occupation 
      1       5.9723      2.00000
      2       6.3647      2.00000
      3       7.3867      2.00000
      4      10.2721      2.00000
      5      10.8388      2.00000
      6      14.0152      0.00000
      7      22.8917      0.00000
      8      25.0140      0.00000
      9      27.9857      0.00000
     10      34.4497      0.00000
     11      34.6691      0.00000
     12      40.9575      0.00000

 k-point    94 :       0.1667    0.3333    0.5000
  band No.  band energies     occupation 
      1       5.9722      2.00000
      2       6.3648      2.00000
      3       7.3866      2.00000
      4      10.2721      2.00000
      5      10.8388      2.00000
      6      14.0151      0.00000
      7      22.8917      0.00000
      8      25.0140      0.00000
      9      27.9857      0.00000
     10      34.4497      0.00000
     11      34.6692      0.00000
     12      40.9576      0.00000

 k-point    95 :      -0.3333    0.3333    0.1667
  band No.  band energies     occupation 
      1       6.3328      2.00000
      2       6.4140      2.00000
      3       7.6751      2.00000
      4       9.7057      2.00000
      5      11.7847      2.00000
      6      17.7893      0.00000
      7      18.1484      0.00000
      8      24.5510      0.00000
      9      26.2643      0.00000
     10      33.0366      0.00000
     11      37.5274      0.00000
     12      42.3972      0.00000

 k-point    96 :       0.1667   -0.3333    0.3333
  band No.  band energies     occupation 
      1       6.3329      2.00000
      2       6.4140      2.00000
      3       7.6752      2.00000
      4       9.7057      2.00000
      5      11.7847      2.00000
      6      17.7893      0.00000
      7      18.1484      0.00000
      8      24.5510      0.00000
      9      26.2642      0.00000
     10      33.0366      0.00000
     11      37.5274      0.00000
     12      42.3972      0.00000

 k-point    97 :       0.3333    0.1667   -0.3333
  band No.  band energies     occupation 
      1       6.3328      2.00000
      2       6.4140      2.00000
      3       7.6752      2.00000
      4       9.7057      2.00000
      5      11.7847      2.00000
      6      17.7893      0.00000
      7      18.1484      0.00000
      8      24.5510      0.00000
      9      26.2642      0.00000
     10      33.0366      0.00000
     11      37.5274      0.00000
     12      42.3972      0.00000

 k-point    98 :      -0.3333    0.3333    0.5000
  band No.  band energies     occupation 
      1       6.3329      2.00000
      2       6.4140      2.00000
      3       7.6751      2.00000
      4       9.7057      2.00000
      5      11.7847      2.00000
      6      17.7892      0.00000
      7      18.1484      0.00000
      8      24.5511      0.00000
      9      26.2643      0.00000
     10      33.0367      0.00000
     11      37.5274      0.00000
     12      42.3974      0.00000

 k-point    99 :       0.1667    0.5000   -0.1667
  band No.  band energies     occupation 
      1       6.3329      2.00000
      2       6.4140      2.00000
      3       7.6751      2.00000
      4       9.7057      2.00000
      5      11.7847      2.00000
      6      17.7893      0.00000
      7      18.1485      0.00000
      8      24.5511      0.00000
      9      26.2642      0.00000
     10      33.0366      0.00000
     11      37.5274      0.00000
     12      42.3972      0.00000

 k-point   100 :       0.3333   -0.1667   -0.3333
  band No.  band energies     occupation 
      1       6.3328      2.00000
      2       6.4140      2.00000
      3       7.6751      2.00000
      4       9.7057      2.00000
      5      11.7847      2.00000
      6      17.7893      0.00000
      7      18.1484      0.00000
      8      24.5510      0.00000
      9      26.2643      0.00000
     10      33.0366      0.00000
     11      37.5274      0.00000
     12      42.3973      0.00000

 k-point   101 :       0.5000   -0.3333    0.3333
  band No.  band energies     occupation 
      1       6.3329      2.00000
      2       6.4140      2.00000
      3       7.6751      2.00000
      4       9.7057      2.00000
      5      11.7847      2.00000
      6      17.7892      0.00000
      7      18.1484      0.00000
      8      24.5511      0.00000
      9      26.2643      0.00000
     10      33.0367      0.00000
     11      37.5274      0.00000
     12      42.3974      0.00000

 k-point   102 :      -0.1667    0.1667    0.5000
  band No.  band energies     occupation 
      1       6.3329      2.00000
      2       6.4140      2.00000
      3       7.6751      2.00000
      4       9.7057      2.00000
      5      11.7847      2.00000
      6      17.7893      0.00000
      7      18.1485      0.00000
      8      24.5511      0.00000
      9      26.2642      0.00000
     10      33.0366      0.00000
     11      37.5274      0.00000
     12      42.3972      0.00000

 k-point   103 :      -0.3333    0.3333   -0.1667
  band No.  band energies     occupation 
      1       6.3328      2.00000
      2       6.4140      2.00000
      3       7.6752      2.00000
      4       9.7057      2.00000
      5      11.7847      2.00000
      6      17.7893      0.00000
      7      18.1484      0.00000
      8      24.5510      0.00000
      9      26.2642      0.00000
     10      33.0366      0.00000
     11      37.5274      0.00000
     12      42.3972      0.00000

 k-point   104 :       0.3333    0.5000   -0.3333
  band No.  band energies     occupation 
      1       6.3329      2.00000
      2       6.4140      2.00000
      3       7.6751      2.00000
      4       9.7057      2.00000
      5      11.7847      2.00000
      6      17.7892      0.00000
      7      18.1484      0.00000
      8      24.5511      0.00000
      9      26.2643      0.00000
     10      33.0367      0.00000
     11      37.5274      0.00000
     12      42.3974      0.00000

 k-point   105 :       0.5000   -0.1667    0.1667
  band No.  band energies     occupation 
      1       6.3329      2.00000
      2       6.4140      2.00000
      3       7.6751      2.00000
      4       9.7057      2.00000
      5      11.7847      2.00000
      6      17.7893      0.00000
      7      18.1485      0.00000
      8      24.5511      0.00000
      9      26.2642      0.00000
     10      33.0366      0.00000
     11      37.5274      0.00000
     12      42.3972      0.00000

 k-point   106 :      -0.1667   -0.3333    0.3333
  band No.  band energies     occupation 
      1       6.3329      2.00000
      2       6.4140      2.00000
      3       7.6752      2.00000
      4       9.7057      2.00000
      5      11.7847      2.00000
      6      17.7893      0.00000
      7      18.1484      0.00000
      8      24.5510      0.00000
      9      26.2642      0.00000
     10      33.0366      0.00000
     11      37.5274      0.00000
     12      42.3972      0.00000

 k-point   107 :      -0.3333    0.5000    0.1667
  band No.  band energies     occupation 
      1       5.5053      2.00000
      2       5.9677      2.00000
      3       8.7628      2.00000
      4      10.4754      2.00000
      5      12.4527      0.00000
      6      18.1175      0.00000
      7      19.6248      0.00000
      8      22.1841      0.00000
      9      24.2240      0.00000
     10      35.8056      0.00000
     11      36.8702      0.00000
     12      38.5594      0.00000

 k-point   108 :       0.1667   -0.3333    0.5000
  band No.  band energies     occupation 
      1       5.5053      2.00000
      2       5.9677      2.00000
      3       8.7628      2.00000
      4      10.4754      2.00000
      5      12.4527      0.00000
      6      18.1175      0.00000
      7      19.6248      0.00000
      8      22.1841      0.00000
      9      24.2240      0.00000
     10      35.8056      0.00000
     11      36.8702      0.00000
     12      38.5594      0.00000

 k-point   109 :       0.5000    0.1667   -0.3333
  band No.  band energies     occupation 
      1       5.5053      2.00000
      2       5.9677      2.00000
      3       8.7628      2.00000
      4      10.4754      2.00000
      5      12.4527      0.00000
      6      18.1175      0.00000
      7      19.6248      0.00000
      8      22.1841      0.00000
      9      24.2240      0.00000
     10      35.8056      0.00000
     11      36.8702      0.00000
     12      38.5594      0.00000

 k-point   110 :       0.5000    0.3333   -0.1667
  band No.  band energies     occupation 
      1       5.5053      2.00000
      2       5.9677      2.00000
      3       8.7628      2.00000
      4      10.4754      2.00000
      5      12.4527      0.00000
      6      18.1175      0.00000
      7      19.6248      0.00000
      8      22.1841      0.00000
      9      24.2240      0.00000
     10      35.8056      0.00000
     11      36.8702      0.00000
     12      38.5594      0.00000

 k-point   111 :      -0.3333    0.1667    0.5000
  band No.  band energies     occupation 
      1       5.5053      2.00000
      2       5.9677      2.00000
      3       8.7628      2.00000
      4      10.4754      2.00000
      5      12.4527      0.00000
      6      18.1175      0.00000
      7      19.6248      0.00000
      8      22.1841      0.00000
      9      24.2240      0.00000
     10      35.8056      0.00000
     11      36.8702      0.00000
     12      38.5594      0.00000

 k-point   112 :       0.1667    0.5000   -0.3333
  band No.  band energies     occupation 
      1       5.5053      2.00000
      2       5.9677      2.00000
      3       8.7628      2.00000
      4      10.4754      2.00000
      5      12.4527      0.00000
      6      18.1175      0.00000
      7      19.6248      0.00000
      8      22.1841      0.00000
      9      24.2240      0.00000
     10      35.8056      0.00000
     11      36.8702      0.00000
     12      38.5594      0.00000


--------------------------------------------------------------------------------------------------------


 soft charge-density along one line, spin component            1
         0         1         2         3         4         5         6         7         8         9
 total charge-density along one line
 
 pseudopotential strength for first ion, spin component:            1
 -2.197   0.000  -0.015   0.000   0.009  -2.419   0.000  -0.015
  0.000  -2.197   0.000  -0.018  -0.000   0.000  -2.419   0.000
 -0.015   0.000  -2.213   0.000  -0.005  -0.015   0.000  -2.434
  0.000  -0.018   0.000  -2.210   0.000   0.000  -0.017   0.000
  0.009  -0.000  -0.005   0.000  -2.219   0.009  -0.000  -0.005
 -2.419   0.000  -0.015   0.000   0.009  -2.622   0.000  -0.015
  0.000  -2.419   0.000  -0.017  -0.000   0.000  -2.622   0.000
 -0.015   0.000  -2.434   0.000  -0.005  -0.015   0.000  -2.637
  0.000  -0.017   0.000  -2.431   0.000   0.000  -0.017   0.000
  0.009  -0.000  -0.005   0.000  -2.440   0.008  -0.000  -0.005
 -0.000  -0.000  -0.000  -0.000  -0.000  -0.000  -0.000  -0.000
 -0.000  -0.000  -0.000  -0.000  -0.000  -0.000  -0.000  -0.000
  0.000   0.000  -0.000   0.000  -0.000   0.000   0.000  -0.000
  0.000  -0.000   0.000   0.000  -0.000   0.000  -0.000   0.000
 -0.000   0.000  -0.000   0.000   0.000  -0.000   0.000  -0.000
  0.000   0.000  -0.000   0.000  -0.000   0.000   0.000  -0.000
  0.000  -0.000   0.000   0.000  -0.000   0.000  -0.000   0.000
 -0.000   0.000  -0.000   0.000   0.000  -0.000   0.000  -0.000
 total augmentation occupancy for first ion, spin component:            1
  5.123   0.000  -0.328   0.000   0.189  -3.617  -0.000   0.052  -0.000  -0.030   0.000  -0.000   0.000  -0.000  -0.000  -0.000
  0.000   5.123  -0.000  -0.378  -0.000  -0.000  -3.618   0.000   0.060   0.000   0.000  -0.000  -0.000   0.000  -0.000   0.000
 -0.328  -0.000   4.788  -0.000  -0.116   0.052   0.000  -3.565   0.000   0.018   0.000  -0.000  -0.000   0.000  -0.000   0.000
  0.000  -0.378  -0.000   4.855   0.000  -0.000   0.060   0.000  -3.575  -0.000   0.000  -0.000   0.000   0.000   0.000  -0.000
  0.189  -0.000  -0.116   0.000   4.654  -0.030   0.000   0.018  -0.000  -3.544   0.000  -0.000  -0.000  -0.000   0.000   0.000
 -3.617  -0.000   0.052  -0.000  -0.030   3.892   0.000   0.159   0.000  -0.092  -0.000   0.000   0.000  -0.000   0.000  -0.000
 -0.000  -3.618   0.000   0.060   0.000   0.000   3.892  -0.000   0.183  -0.000  -0.000   0.000   0.000  -0.000   0.000  -0.000
  0.052   0.000  -3.565   0.000   0.018   0.159  -0.000   4.055   0.000   0.056  -0.000   0.000  -0.000  -0.000   0.000   0.000
 -0.000   0.060   0.000  -3.575  -0.000   0.000   0.183   0.000   4.022   0.000  -0.000   0.000   0.000  -0.000   0.000  -0.000
 -0.030   0.000   0.018  -0.000  -3.544  -0.092  -0.000   0.056   0.000   4.120  -0.000   0.000   0.000  -0.000  -0.000   0.000
  0.000   0.000   0.000   0.000   0.000  -0.000  -0.000  -0.000  -0.000  -0.000   2.870  -0.705  -0.000  -0.000   0.000   0.000
 -0.000  -0.000  -0.000  -0.000  -0.000   0.000   0.000   0.000   0.000   0.000  -0.705   0.193   0.000   0.000  -0.000  -0.000
  0.000  -0.000  -0.000   0.000  -0.000   0.000   0.000  -0.000   0.000   0.000  -0.000   0.000   0.343  -0.000  -0.000  -0.021
 -0.000   0.000   0.000   0.000  -0.000  -0.000  -0.000  -0.000  -0.000  -0.000  -0.000   0.000  -0.000   0.343  -0.000   0.000
 -0.000  -0.000  -0.000   0.000   0.000   0.000   0.000   0.000   0.000  -0.000   0.000  -0.000  -0.000  -0.000   0.343  -0.000
 -0.000   0.000   0.000  -0.000   0.000  -0.000  -0.000   0.000  -0.000   0.000   0.000  -0.000  -0.021   0.000  -0.000   0.001
  0.000  -0.000  -0.000  -0.000   0.000   0.000   0.000   0.000   0.000   0.000   0.000  -0.000   0.000  -0.021   0.000  -0.000
  0.000   0.000   0.000  -0.000  -0.000  -0.000  -0.000  -0.000  -0.000   0.000  -0.000   0.000  -0.000   0.000  -0.021   0.000


------------------------ aborting loop because EDIFF is reached ----------------------------------------





 total charge

# of ion       s       p       d       tot
------------------------------------------
    1        0.662   0.663   8.056   9.382
 
    CHARGE:  cpu time    0.0069: real time    0.0069
    FORLOC:  cpu time    0.0001: real time    0.0001
    FORNL :  cpu time    0.0204: real time    0.0231
    FORCOR:  cpu time    0.0067: real time    0.0067
    FORHAR:  cpu time    0.0008: real time    0.0008
    MIXING:  cpu time    0.0003: real time    0.0003
    OFIELD:  cpu time    0.0000: real time    0.0000

 VOLUME and BASIS-vectors are now :
 -----------------------------------------------------------------------------
  energy-cutoff  :      420.00
  volume of cell :       14.61
      direct lattice vectors                 reciprocal lattice vectors
     2.376425000  0.000005000  1.372043000     0.420800839 -0.148776365 -0.000000649
     0.792147000  2.240512000  1.372043000    -0.000000470  0.446327218 -0.000000813
     0.000006000  0.000005000  2.744065000    -0.210401795 -0.148776565  0.364423586

  length of vectors
     2.744065920  2.744065029  2.744065000     0.446326958  0.446327218  0.446327157


 FORCES acting on ions
    electron-ion (+dipol)            ewald-force                    non-local-force                 convergence-correction
 -----------------------------------------------------------------------------------------------
   0.483E-05 0.204E-06 -.287E-06   -.290E-15 -.318E-15 0.119E-14   -.576E-05 0.281E-05 0.540E-05   -.724E-05 0.133E-05 -.410E-05
 -----------------------------------------------------------------------------------------------
   0.483E-05 0.204E-06 -.287E-06   -.290E-15 -.318E-15 0.119E-14   -.576E-05 0.281E-05 0.540E-05   -.724E-05 0.133E-05 -.410E-05
 
 
 POSITION                                       TOTAL-FORCE (eV/Angst)
 -----------------------------------------------------------------------------------
      0.00000      0.00000      0.00000        -0.000008      0.000004      0.000001
 -----------------------------------------------------------------------------------
    total drift:                               -0.000008      0.000004      0.000001


--------------------------------------------------------------------------------------------------------



  FREE ENERGIE OF THE ION-ELECTRON SYSTEM (eV)
  ---------------------------------------------------
  free  energy   TOTEN  =        -5.48613535 eV

  energy  without entropy=       -5.48417212  energy(sigma->0) =       -5.48515373
 


--------------------------------------------------------------------------------------------------------


    POTLOK:  cpu time    0.0066: real time    0.0067


--------------------------------------------------------------------------------------------------------


     LOOP+:  cpu time    4.6646: real time    4.6803
    4ORBIT:  cpu time    0.0000: real time    0.0000



 total charge

# of ion       s       p       d       tot
------------------------------------------
    1        0.662   0.663   8.056   9.382
 

 total amount of memory used by VASP MPI-rank0    32121. kBytes
=======================================================================

   base      :      30000. kBytes
   nonl-proj :       1356. kBytes
   fftplans  :         80. kBytes
   grid      :        111. kBytes
   one-center:         15. kBytes
   wavefun   :        559. kBytes
 
  
  
 General timing and accounting informations for this job:
 ========================================================
  
                  Total CPU time used (sec):        5.747
                            User time (sec):        5.513
                          System time (sec):        0.233
                         Elapsed time (sec):       10.980
  
                   Maximum memory used (kb):       54100.
                   Average memory used (kb):          N/A
  
                          Minor page faults:         6509
                          Major page faults:          438
                 Voluntary context switches:         5742
