<?xml version="1.0" encoding="ISO-8859-1"?>
<modeling>
 <generator>
  <i name="program" type="string">vasp </i>
  <i name="version" type="string">6.2.0  </i>
  <i name="subversion" type="string">18Jan21 (build Feb  1 2022 01:28:57) complex                          parallel </i>
  <i name="platform" type="string">LinuxPGI </i>
  <i name="date" type="string">2022 05 18 </i>
  <i name="time" type="string">19:38:47 </i>
 </generator>
 <incar>
  <i type="string" name="PREC">Normal</i>
  <i type="string" name="ALGO">38</i>
  <i type="int" name="ISPIN">     1</i>
  <i type="int" name="NELM">    60</i>
  <i type="int" name="NELMIN">     4</i>
  <i type="int" name="IBRION">     2</i>
  <i name="EDIFF">      0.00010000</i>
  <i name="EDIFFG">     -0.03000000</i>
  <i type="int" name="NSW">     0</i>
  <i type="int" name="ISIF">     0</i>
  <i type="int" name="ISYM">     0</i>
  <i name="SYMPREC">      0.00001000</i>
  <i name="ENCUT">    420.00000000</i>
  <i type="logical" name="LREAL"> F  </i>
  <i type="int" name="ISMEAR">     0</i>
  <i name="SIGMA">      0.05000000</i>
  <i type="logical" name="LWAVE"> F  </i>
  <i type="logical" name="LVTOT"> F  </i>
  <i type="int" name="LORBIT">    11</i>
  <i type="logical" name="LASPH"> F  </i>
  <i type="string" name="GGA">RP</i>
 </incar>
 <primitive_cell>
  <structure name="primitive_cell" >
   <crystal>
    <varray name="basis" >
     <v>       2.37642500       0.00000500       1.37204300 </v>
     <v>       0.79214700       2.24051200       1.37204300 </v>
     <v>       0.00000600       0.00000500       2.74406500 </v>
    </varray>
    <i name="volume">     14.61048346 </i>
    <varray name="rec_basis" >
     <v>       0.42080084      -0.14877637      -0.00000065 </v>
     <v>      -0.00000047       0.44632722      -0.00000081 </v>
     <v>      -0.21040180      -0.14877656       0.36442359 </v>
    </varray>
   </crystal>
   <varray name="positions" >
    <v>       0.00000000       0.00000000       0.00000000 </v>
   </varray>
  </structure>
  <varray name="primitive_index" >
   <v type="int" >        1 </v>
  </varray>
 </primitive_cell>
 <kpoints>
  <generation param="Gamma">
   <v type="int" name="divisions">       6        6        6 </v>
   <v name="usershift">      0.00000000       0.00000000       0.00000000 </v>
   <v name="genvec1">      0.16666667       0.00000000       0.00000000 </v>
   <v name="genvec2">      0.00000000       0.16666667       0.00000000 </v>
   <v name="genvec3">      0.00000000       0.00000000       0.16666667 </v>
   <v name="shift">      0.00000000       0.00000000       0.00000000 </v>
  </generation>
  <varray name="kpointlist" >
   <v>       0.00000000       0.00000000       0.00000000 </v>
   <v>       0.16666667       0.00000000       0.00000000 </v>
   <v>       0.00000000       0.16666667       0.00000000 </v>
   <v>       0.00000000       0.00000000       0.16666667 </v>
   <v>       0.16666667       0.16666667       0.16666667 </v>
   <v>       0.33333333       0.00000000       0.00000000 </v>
   <v>       0.00000000       0.33333333       0.00000000 </v>
   <v>       0.00000000       0.00000000       0.33333333 </v>
   <v>       0.33333333       0.33333333       0.33333333 </v>
   <v>       0.50000000       0.00000000       0.00000000 </v>
   <v>       0.00000000       0.50000000       0.00000000 </v>
   <v>       0.00000000       0.00000000       0.50000000 </v>
   <v>       0.50000000       0.50000000       0.50000000 </v>
   <v>       0.16666667       0.16666667       0.00000000 </v>
   <v>       0.00000000       0.16666667       0.16666667 </v>
   <v>       0.16666667       0.00000000       0.16666667 </v>
   <v>       0.33333333       0.16666667       0.00000000 </v>
   <v>       0.00000000       0.33333333       0.16666667 </v>
   <v>       0.16666667       0.00000000       0.33333333 </v>
   <v>       0.16666667       0.16666667      -0.16666667 </v>
   <v>       0.33333333       0.16666667       0.33333333 </v>
   <v>       0.16666667       0.33333333       0.00000000 </v>
   <v>       0.16666667      -0.16666667      -0.16666667 </v>
   <v>       0.33333333       0.33333333       0.16666667 </v>
   <v>       0.00000000       0.16666667       0.33333333 </v>
   <v>      -0.16666667       0.16666667      -0.16666667 </v>
   <v>       0.16666667       0.33333333       0.33333333 </v>
   <v>       0.33333333       0.00000000       0.16666667 </v>
   <v>       0.50000000       0.16666667       0.00000000 </v>
   <v>       0.00000000       0.50000000       0.16666667 </v>
   <v>       0.16666667       0.00000000       0.50000000 </v>
   <v>       0.16666667       0.16666667      -0.33333333 </v>
   <v>       0.50000000       0.33333333       0.50000000 </v>
   <v>       0.16666667       0.50000000       0.00000000 </v>
   <v>       0.33333333      -0.16666667      -0.16666667 </v>
   <v>       0.50000000       0.50000000       0.33333333 </v>
   <v>       0.00000000       0.16666667       0.50000000 </v>
   <v>      -0.16666667       0.33333333      -0.16666667 </v>
   <v>       0.33333333       0.50000000       0.50000000 </v>
   <v>       0.50000000       0.00000000       0.16666667 </v>
   <v>      -0.33333333       0.16666667       0.00000000 </v>
   <v>       0.00000000      -0.33333333       0.16666667 </v>
   <v>       0.16666667       0.00000000      -0.33333333 </v>
   <v>       0.16666667       0.16666667       0.50000000 </v>
   <v>      -0.33333333       0.50000000      -0.33333333 </v>
   <v>       0.16666667      -0.33333333       0.00000000 </v>
   <v>       0.50000000      -0.16666667      -0.16666667 </v>
   <v>      -0.33333333      -0.33333333       0.50000000 </v>
   <v>       0.00000000       0.16666667      -0.33333333 </v>
   <v>      -0.16666667       0.50000000      -0.16666667 </v>
   <v>       0.50000000      -0.33333333      -0.33333333 </v>
   <v>      -0.33333333       0.00000000       0.16666667 </v>
   <v>      -0.16666667       0.16666667       0.00000000 </v>
   <v>       0.00000000      -0.16666667       0.16666667 </v>
   <v>       0.16666667       0.00000000      -0.16666667 </v>
   <v>       0.16666667       0.16666667       0.33333333 </v>
   <v>      -0.16666667      -0.33333333      -0.16666667 </v>
   <v>      -0.33333333      -0.16666667      -0.16666667 </v>
   <v>       0.33333333       0.33333333       0.00000000 </v>
   <v>       0.00000000       0.33333333       0.33333333 </v>
   <v>       0.33333333       0.00000000       0.33333333 </v>
   <v>       0.50000000       0.33333333       0.00000000 </v>
   <v>       0.00000000       0.50000000       0.33333333 </v>
   <v>       0.33333333       0.00000000       0.50000000 </v>
   <v>       0.33333333       0.33333333      -0.16666667 </v>
   <v>       0.50000000       0.16666667       0.50000000 </v>
   <v>       0.33333333       0.50000000       0.00000000 </v>
   <v>       0.16666667      -0.33333333      -0.33333333 </v>
   <v>       0.50000000       0.50000000       0.16666667 </v>
   <v>       0.00000000       0.33333333       0.50000000 </v>
   <v>      -0.33333333       0.16666667      -0.33333333 </v>
   <v>       0.16666667       0.50000000       0.50000000 </v>
   <v>       0.50000000       0.00000000       0.33333333 </v>
   <v>      -0.33333333       0.33333333       0.00000000 </v>
   <v>       0.00000000      -0.33333333       0.33333333 </v>
   <v>       0.33333333       0.00000000      -0.33333333 </v>
   <v>       0.33333333       0.33333333      -0.33333333 </v>
   <v>      -0.33333333       0.33333333      -0.33333333 </v>
   <v>       0.33333333      -0.33333333      -0.33333333 </v>
   <v>       0.50000000       0.50000000       0.00000000 </v>
   <v>       0.00000000       0.50000000       0.50000000 </v>
   <v>       0.50000000       0.00000000       0.50000000 </v>
   <v>       0.50000000       0.33333333       0.16666667 </v>
   <v>       0.16666667       0.50000000       0.33333333 </v>
   <v>       0.33333333       0.16666667       0.50000000 </v>
   <v>       0.33333333       0.16666667      -0.16666667 </v>
   <v>       0.50000000       0.16666667       0.33333333 </v>
   <v>       0.16666667      -0.33333333      -0.16666667 </v>
   <v>       0.16666667       0.33333333      -0.16666667 </v>
   <v>       0.16666667      -0.16666667      -0.33333333 </v>
   <v>       0.33333333       0.50000000       0.16666667 </v>
   <v>      -0.16666667       0.16666667      -0.33333333 </v>
   <v>      -0.33333333       0.16666667      -0.16666667 </v>
   <v>       0.16666667       0.33333333       0.50000000 </v>
   <v>      -0.33333333       0.33333333       0.16666667 </v>
   <v>       0.16666667      -0.33333333       0.33333333 </v>
   <v>       0.33333333       0.16666667      -0.33333333 </v>
   <v>      -0.33333333       0.33333333       0.50000000 </v>
   <v>       0.16666667       0.50000000      -0.16666667 </v>
   <v>       0.33333333      -0.16666667      -0.33333333 </v>
   <v>       0.50000000      -0.33333333       0.33333333 </v>
   <v>      -0.16666667       0.16666667       0.50000000 </v>
   <v>      -0.33333333       0.33333333      -0.16666667 </v>
   <v>       0.33333333       0.50000000      -0.33333333 </v>
   <v>       0.50000000      -0.16666667       0.16666667 </v>
   <v>      -0.16666667      -0.33333333       0.33333333 </v>
   <v>      -0.33333333       0.50000000       0.16666667 </v>
   <v>       0.16666667      -0.33333333       0.50000000 </v>
   <v>       0.50000000       0.16666667      -0.33333333 </v>
   <v>       0.50000000       0.33333333      -0.16666667 </v>
   <v>      -0.33333333       0.16666667       0.50000000 </v>
   <v>       0.16666667       0.50000000      -0.33333333 </v>
  </varray>
  <varray name="weights" >
   <v>       0.00462963 </v>
   <v>       0.00925926 </v>
   <v>       0.00925926 </v>
   <v>       0.00925926 </v>
   <v>       0.00925926 </v>
   <v>       0.00925926 </v>
   <v>       0.00925926 </v>
   <v>       0.00925926 </v>
   <v>       0.00925926 </v>
   <v>       0.00462963 </v>
   <v>       0.00462963 </v>
   <v>       0.00462963 </v>
   <v>       0.00462963 </v>
   <v>       0.00925926 </v>
   <v>       0.00925926 </v>
   <v>       0.00925926 </v>
   <v>       0.00925926 </v>
   <v>       0.00925926 </v>
   <v>       0.00925926 </v>
   <v>       0.00925926 </v>
   <v>       0.00925926 </v>
   <v>       0.00925926 </v>
   <v>       0.00925926 </v>
   <v>       0.00925926 </v>
   <v>       0.00925926 </v>
   <v>       0.00925926 </v>
   <v>       0.00925926 </v>
   <v>       0.00925926 </v>
   <v>       0.00925926 </v>
   <v>       0.00925926 </v>
   <v>       0.00925926 </v>
   <v>       0.00925926 </v>
   <v>       0.00925926 </v>
   <v>       0.00925926 </v>
   <v>       0.00925926 </v>
   <v>       0.00925926 </v>
   <v>       0.00925926 </v>
   <v>       0.00925926 </v>
   <v>       0.00925926 </v>
   <v>       0.00925926 </v>
   <v>       0.00925926 </v>
   <v>       0.00925926 </v>
   <v>       0.00925926 </v>
   <v>       0.00925926 </v>
   <v>       0.00925926 </v>
   <v>       0.00925926 </v>
   <v>       0.00925926 </v>
   <v>       0.00925926 </v>
   <v>       0.00925926 </v>
   <v>       0.00925926 </v>
   <v>       0.00925926 </v>
   <v>       0.00925926 </v>
   <v>       0.00925926 </v>
   <v>       0.00925926 </v>
   <v>       0.00925926 </v>
   <v>       0.00925926 </v>
   <v>       0.00925926 </v>
   <v>       0.00925926 </v>
   <v>       0.00925926 </v>
   <v>       0.00925926 </v>
   <v>       0.00925926 </v>
   <v>       0.00925926 </v>
   <v>       0.00925926 </v>
   <v>       0.00925926 </v>
   <v>       0.00925926 </v>
   <v>       0.00925926 </v>
   <v>       0.00925926 </v>
   <v>       0.00925926 </v>
   <v>       0.00925926 </v>
   <v>       0.00925926 </v>
   <v>       0.00925926 </v>
   <v>       0.00925926 </v>
   <v>       0.00925926 </v>
   <v>       0.00925926 </v>
   <v>       0.00925926 </v>
   <v>       0.00925926 </v>
   <v>       0.00925926 </v>
   <v>       0.00925926 </v>
   <v>       0.00925926 </v>
   <v>       0.00462963 </v>
   <v>       0.00462963 </v>
   <v>       0.00462963 </v>
   <v>       0.00925926 </v>
   <v>       0.00925926 </v>
   <v>       0.00925926 </v>
   <v>       0.00925926 </v>
   <v>       0.00925926 </v>
   <v>       0.00925926 </v>
   <v>       0.00925926 </v>
   <v>       0.00925926 </v>
   <v>       0.00925926 </v>
   <v>       0.00925926 </v>
   <v>       0.00925926 </v>
   <v>       0.00925926 </v>
   <v>       0.00925926 </v>
   <v>       0.00925926 </v>
   <v>       0.00925926 </v>
   <v>       0.00925926 </v>
   <v>       0.00925926 </v>
   <v>       0.00925926 </v>
   <v>       0.00925926 </v>
   <v>       0.00925926 </v>
   <v>       0.00925926 </v>
   <v>       0.00925926 </v>
   <v>       0.00925926 </v>
   <v>       0.00925926 </v>
   <v>       0.00925926 </v>
   <v>       0.00925926 </v>
   <v>       0.00925926 </v>
   <v>       0.00925926 </v>
   <v>       0.00925926 </v>
   <v>       0.00925926 </v>
  </varray>
 </kpoints>
 <parameters>
  <separator name="general" >
   <i type="string" name="SYSTEM">unknown system</i>
   <i type="logical" name="LCOMPAT"> F  </i>
  </separator>
  <separator name="electronic" >
   <i type="string" name="PREC">normal</i>
   <i name="ENMAX">    420.00000000</i>
   <i name="ENAUG">    358.96600000</i>
   <i name="EDIFF">      0.00010000</i>
   <i type="int" name="IALGO">    38</i>
   <i type="int" name="IWAVPR">    10</i>
   <i type="int" name="NBANDS">    12</i>
   <i type="int" name="NBANDSLOW">    -1</i>
   <i type="int" name="NBANDSHIGH">    -1</i>
   <i name="NELECT">     10.00000000</i>
   <i type="int" name="TURBO">     0</i>
   <i type="int" name="IRESTART">     0</i>
   <i type="int" name="NREBOOT">     0</i>
   <i type="int" name="NMIN">     0</i>
   <i name="EREF">      0.00000000</i>
   <separator name="electronic smearing" >
    <i type="int" name="ISMEAR">     0</i>
    <i name="SIGMA">      0.05000000</i>
    <i name="KSPACING">      0.50000000</i>
    <i type="logical" name="KGAMMA"> T  </i>
    <i type="logical" name="KBLOWUP"> T  </i>
   </separator>
   <separator name="electronic projectors" >
    <i type="logical" name="LREAL"> F  </i>
    <v name="ROPT">      0.00000000</v>
    <i type="int" name="LMAXPAW">  -100</i>
    <i type="int" name="LMAXMIX">     2</i>
    <i type="logical" name="NLSPLINE"> F  </i>
   </separator>
   <separator name="electronic startup" >
    <i type="int" name="ISTART">     0</i>
    <i type="int" name="ICHARG">     2</i>
    <i type="int" name="INIWAV">     1</i>
   </separator>
   <separator name="electronic spin" >
    <i type="int" name="ISPIN">     1</i>
    <i type="logical" name="LNONCOLLINEAR"> F  </i>
    <v name="MAGMOM">      1.00000000</v>
    <i name="NUPDOWN">     -1.00000000</i>
    <i type="logical" name="LSORBIT"> F  </i>
    <v name="SAXIS">      0.00000000      0.00000000      1.00000000</v>
    <i type="logical" name="LSPIRAL"> F  </i>
    <v name="QSPIRAL">      0.00000000      0.00000000      0.00000000</v>
    <i type="logical" name="LZEROZ"> F  </i>
   </separator>
   <separator name="electronic exchange-correlation" >
    <i type="logical" name="LASPH"> F  </i>
    <i type="logical" name="LMETAGGA"> F  </i>
   </separator>
   <separator name="electronic convergence" >
    <i type="int" name="NELM">    60</i>
    <i type="int" name="NELMDL">    -5</i>
    <i type="int" name="NELMIN">     4</i>
    <i name="ENINI">    420.00000000</i>
    <separator name="electronic convergence detail" >
     <i type="logical" name="LDIAG"> T  </i>
     <i type="logical" name="LSUBROT"> F  </i>
     <i name="WEIMIN">      0.00000000</i>
     <i name="EBREAK">      0.00000208</i>
     <i name="DEPER">      0.30000000</i>
     <i type="int" name="NRMM">     4</i>
     <i name="TIME">      0.40000000</i>
    </separator>
   </separator>
   <separator name="electronic mixer" >
    <i name="AMIX">      0.40000000</i>
    <i name="BMIX">      1.00000000</i>
    <i name="AMIN">      0.10000000</i>
    <i name="AMIX_MAG">      1.60000000</i>
    <i name="BMIX_MAG">      1.00000000</i>
    <separator name="electronic mixer details" >
     <i type="int" name="IMIX">     4</i>
     <i type="logical" name="MIXFIRST"> F  </i>
     <i type="int" name="MAXMIX">   -45</i>
     <i name="WC">    100.00000000</i>
     <i type="int" name="INIMIX">     1</i>
     <i type="int" name="MIXPRE">     1</i>
     <i type="int" name="MREMOVE">     5</i>
    </separator>
   </separator>
   <separator name="electronic dipolcorrection" >
    <i type="logical" name="LDIPOL"> F  </i>
    <i type="logical" name="LMONO"> F  </i>
    <i type="int" name="IDIPOL">     0</i>
    <i name="EPSILON">      1.00000000</i>
    <v name="DIPOL">   -100.00000000   -100.00000000   -100.00000000</v>
    <i name="EFIELD">      0.00000000</i>
   </separator>
  </separator>
  <separator name="grids" >
   <i type="int" name="NGX">    14</i>
   <i type="int" name="NGY">    14</i>
   <i type="int" name="NGZ">    14</i>
   <i type="int" name="NGXF">    28</i>
   <i type="int" name="NGYF">    28</i>
   <i type="int" name="NGZF">    28</i>
   <i type="logical" name="ADDGRID"> F  </i>
  </separator>
  <separator name="ionic" >
   <i type="int" name="NSW">     0</i>
   <i type="int" name="IBRION">    -1</i>
   <i type="int" name="MDALGO">     0</i>
   <i type="int" name="ISIF">     0</i>
   <i name="PSTRESS">      0.00000000</i>
   <i name="EDIFFG">     -0.03000000</i>
   <i type="int" name="NFREE">     1</i>
   <i name="POTIM">      0.50000000</i>
   <i name="SMASS">     -3.00000000</i>
   <i name="SCALEE">      1.00000000</i>
  </separator>
  <separator name="ionic md" >
   <i name="TEBEG">      0.00010000</i>
   <i name="TEEND">      0.00010000</i>
   <i type="int" name="NBLOCK">     1</i>
   <i type="int" name="KBLOCK">     1</i>
   <i type="int" name="NPACO">   256</i>
   <i name="APACO">     16.00000000</i>
  </separator>
  <separator name="symmetry" >
   <i type="int" name="ISYM">     0</i>
   <i name="SYMPREC">      0.00001000</i>
  </separator>
  <separator name="dos" >
   <i type="int" name="LORBIT">    11</i>
   <v name="RWIGS">     -1.00000000</v>
   <i type="int" name="NEDOS">   301</i>
   <i name="EMIN">     10.00000000</i>
   <i name="EMAX">    -10.00000000</i>
   <i name="EFERMI">      0.00000000</i>
  </separator>
  <separator name="writing" >
   <i type="int" name="NWRITE">     2</i>
   <i type="logical" name="LWAVE"> F  </i>
   <i type="logical" name="LDOWNSAMPLE"> F  </i>
   <i type="logical" name="LCHARG"> T  </i>
   <i type="logical" name="LPARD"> F  </i>
   <i type="logical" name="LVTOT"> F  </i>
   <i type="logical" name="LVHAR"> F  </i>
   <i type="logical" name="LELF"> F  </i>
   <i type="logical" name="LOPTICS"> F  </i>
   <v name="STM">      0.00000000      0.00000000      0.00000000      0.00000000      0.00000000      0.00000000      0.00000000</v>
  </separator>
  <separator name="performance" >
   <i type="int" name="NPAR">     4</i>
   <i type="int" name="NSIM">     4</i>
   <i type="int" name="NBLK">    -1</i>
   <i type="logical" name="LPLANE"> T  </i>
   <i type="logical" name="LSCALAPACK"> T  </i>
   <i type="logical" name="LSCAAWARE"> F  </i>
   <i type="logical" name="LSCALU"> F  </i>
   <i type="logical" name="LASYNC"> F  </i>
   <i type="logical" name="LORBITALREAL"> F  </i>
  </separator>
  <separator name="miscellaneous" >
   <i type="int" name="IDIOT">     3</i>
   <i type="int" name="PHON_NSTRUCT">    -1</i>
   <i type="logical" name="LMUSIC"> F  </i>
   <v name="POMASS">    195.08000000</v>
   <v name="DARWINR">      0.00000000</v>
   <v name="DARWINV">      1.00000000</v>
   <i type="logical" name="LCORR"> T  </i>
  </separator>
  <i type="logical" name="GGA_COMPAT"> T  </i>
  <i type="logical" name="LBERRY"> F  </i>
  <i type="int" name="ICORELEVEL">     0</i>
  <i type="logical" name="LDAU"> F  </i>
  <i type="int" name="I_CONSTRAINED_M">     0</i>
  <separator name="electronic exchange-correlation" >
   <i type="string" name="GGA">RP</i>
   <i type="int" name="VOSKOWN">     0</i>
   <i type="logical" name="LHFCALC"> F  </i>
   <i type="string" name="PRECFOCK"></i>
   <i type="logical" name="LSYMGRAD"> F  </i>
   <i type="logical" name="LHFONE"> F  </i>
   <i type="logical" name="LRHFCALC"> F  </i>
   <i type="logical" name="LTHOMAS"> F  </i>
   <i type="logical" name="LMODELHF"> F  </i>
   <i type="logical" name="LFOCKACE"> F  </i>
   <i name="ENCUT4O">     -1.00000000</i>
   <i type="int" name="EXXOEP">     0</i>
   <i type="int" name="FOURORBIT">     0</i>
   <i name="AEXX">      0.00000000</i>
   <i name="HFALPHA">      0.00000000</i>
   <i name="MCALPHA">      0.00000000</i>
   <i name="ALDAX">      1.00000000</i>
   <i name="AGGAX">      1.00000000</i>
   <i name="ALDAC">      1.00000000</i>
   <i name="AGGAC">      1.00000000</i>
   <i type="int" name="NKREDX">     1</i>
   <i type="int" name="NKREDY">     1</i>
   <i type="int" name="NKREDZ">     1</i>
   <i type="logical" name="SHIFTRED"> F  </i>
   <i type="logical" name="ODDONLY"> F  </i>
   <i type="logical" name="EVENONLY"> F  </i>
   <i type="int" name="LMAXFOCK">     0</i>
   <i type="int" name="NMAXFOCKAE">     0</i>
   <i type="logical" name="LFOCKAEDFT"> F  </i>
   <i name="HFSCREEN">      0.00000000</i>
   <i name="HFSCREENC">      0.00000000</i>
   <i type="int" name="NBANDSGWLOW">     0</i>
  </separator>
  <separator name="vdW DFT" >
   <i type="logical" name="LUSE_VDW"> F  </i>
   <i name="Zab_VDW">     -0.84910000</i>
   <i name="PARAM1">      0.12340000</i>
   <i name="PARAM2">      1.00000000</i>
   <i name="PARAM3">      0.00000000</i>
  </separator>
  <separator name="model GW" >
   <i type="int" name="MODEL_GW">     0</i>
   <i name="MODEL_EPS0">      8.76629008</i>
   <i name="MODEL_ALPHA">      1.00000000</i>
  </separator>
  <separator name="linear response parameters" >
   <i type="logical" name="LEPSILON"> F  </i>
   <i type="logical" name="LRPA"> F  </i>
   <i type="logical" name="LNABLA"> F  </i>
   <i type="logical" name="LVEL"> F  </i>
   <i type="int" name="KINTER">     0</i>
   <i name="CSHIFT">      0.10000000</i>
   <i name="OMEGAMAX">     -1.00000000</i>
   <i name="DEG_THRESHOLD">      0.00200000</i>
   <i name="RTIME">     -0.10000000</i>
   <i name="WPLASMAI">      0.00000000</i>
   <v name="DFIELD">      0.00000000      0.00000000      0.00000000</v>
   <v name="WPLASMA">      0.00000000      0.00000000      0.00000000      0.00000000      0.00000000      0.00000000      0.00000000      0.00000000      0.00000000</v>
  </separator>
  <separator name="orbital magnetization" >
   <i type="logical" name="NUCIND"> F  </i>
   <v name="MAGPOS">      0.00000000      0.00000000      0.00000000</v>
   <i type="logical" name="LNICSALL"> T  </i>
   <i type="logical" name="ORBITALMAG"> F  </i>
   <i type="logical" name="LMAGBLOCH"> F  </i>
   <i type="logical" name="LCHIMAG"> F  </i>
   <i type="logical" name="LGAUGE"> T  </i>
   <i type="int" name="MAGATOM">     0</i>
   <v name="MAGDIPOL">      0.00000000      0.00000000      0.00000000</v>
   <v name="AVECCONST">      0.00000000      0.00000000      0.00000000</v>
  </separator>
  <separator name="response functions" >
   <i type="logical" name="LFINITE_TEMPERATURE"> F  </i>
   <i type="logical" name="LADDER"> F  </i>
   <i type="logical" name="LRPAFORCE"> F  </i>
   <i type="logical" name="LFXC"> F  </i>
   <i type="logical" name="LHARTREE"> T  </i>
   <i type="int" name="IBSE">     0</i>
   <v type="int" name="KPOINT">    -1     0     0     0</v>
   <i type="logical" name="LTCTC"> F  </i>
   <i type="logical" name="LTCTE"> F  </i>
   <i type="logical" name="LTETE"> F  </i>
   <i type="logical" name="LTRIPLET"> F  </i>
   <i type="logical" name="LFXCEPS"> F  </i>
   <i type="logical" name="LFXHEG"> F  </i>
   <i type="int" name="NATURALO">     2</i>
   <i type="logical" name="LHOLEGF"> F  </i>
   <i type="logical" name="L2ORDER"> F  </i>
   <i type="logical" name="LDMP1"> F  </i>
   <i type="logical" name="LMP2LT"> F  </i>
   <i type="logical" name="LSMP2LT"> F  </i>
   <i type="logical" name="LGWLF"> F  </i>
   <i name="ENCUTGW">     -2.00000000</i>
   <i name="ENCUTGWSOFT">     -2.00000000</i>
   <i name="ENCUTLF">     -1.00000000</i>
   <i type="logical" name="LESF_SPLINES"> F  </i>
   <i type="int" name="LMAXMP2">    -1</i>
   <i name="SCISSOR">      0.00000000</i>
   <i type="int" name="NOMEGA">     0</i>
   <i type="int" name="NOMEGAR">     0</i>
   <i type="int" name="NBANDSGW">    -1</i>
   <i type="int" name="NBANDSO">    -1</i>
   <i type="int" name="NBANDSV">    -1</i>
   <i type="int" name="NELM">    60</i>
   <i type="int" name="NELMHF">     1</i>
   <i type="int" name="DIM">     3</i>
   <i type="int" name="IESPILON">     4</i>
   <i type="int" name="ANTIRES">     0</i>
   <i name="OMEGAMAX">    -30.00000000</i>
   <i name="OMEGAMIN">    -30.00000000</i>
   <i name="OMEGATL">   -200.00000000</i>
   <i type="int" name="OMEGAGRID">     0</i>
   <i name="CSHIFT">     -0.10000000</i>
   <i type="logical" name="LSELFENERGY"> F  </i>
   <i type="logical" name="LSPECTRAL"> F  </i>
   <i type="logical" name="LSPECTRALGW"> F  </i>
   <i type="logical" name="LSINGLES"> F  </i>
   <i type="logical" name="LFERMIGW"> F  </i>
   <i type="logical" name="ODDONLYGW"> F  </i>
   <i type="logical" name="EVENONLYGW"> F  </i>
   <i type="int" name="NKREDLFX">     1</i>
   <i type="int" name="NKREDLFY">     1</i>
   <i type="int" name="NKREDLFZ">     1</i>
   <i type="int" name="MAXMEM">  2800</i>
   <i type="int" name="TELESCOPE">     0</i>
   <i type="int" name="NTAUPAR">    -1</i>
   <i type="int" name="NOMEGAPAR">    -1</i>
   <i name="DAMP_NEWTON">      0.80000001</i>
   <i name="LAMBDA">      1.00000000</i>
  </separator>
  <separator name="External order field" >
   <i name="OFIELD_KAPPA">      0.00000000</i>
   <v name="OFIELD_K">      0.00000000      0.00000000      0.00000000</v>
   <i name="OFIELD_Q6_NEAR">      0.00000000</i>
   <i name="OFIELD_Q6_FAR">      0.00000000</i>
   <i name="OFIELD_A">      0.00000000</i>
  </separator>
 </parameters>
 <atominfo>
  <atoms>       1 </atoms>
  <types>       1 </types>
  <array name="atoms" >
   <dimension dim="1">ion</dimension>
   <field type="string">element</field>
   <field type="int">atomtype</field>
   <set>
    <rc><c>Pt</c><c>   1</c></rc>
   </set>
  </array>
  <array name="atomtypes" >
   <dimension dim="1">type</dimension>
   <field type="int">atomspertype</field>
   <field type="string">element</field>
   <field>mass</field>
   <field>valence</field>
   <field type="string">pseudopotential</field>
   <set>
    <rc><c>   1</c><c>Pt</c><c>    195.08000000</c><c>     10.00000000</c><c>  PAW_PBE Pt 04Feb2005                  </c></rc>
   </set>
  </array>
 </atominfo>
 <structure name="initialpos" >
  <crystal>
   <varray name="basis" >
    <v>       2.37642500       0.00000500       1.37204300 </v>
    <v>       0.79214700       2.24051200       1.37204300 </v>
    <v>       0.00000600       0.00000500       2.74406500 </v>
   </varray>
   <i name="volume">     14.61048346 </i>
   <varray name="rec_basis" >
    <v>       0.42080084      -0.14877637      -0.00000065 </v>
    <v>      -0.00000047       0.44632722      -0.00000081 </v>
    <v>      -0.21040180      -0.14877656       0.36442359 </v>
   </varray>
  </crystal>
  <varray name="positions" >
   <v>       0.00000000       0.00000000       0.00000000 </v>
  </varray>
 </structure>
 <calculation>
  <scstep>
   <time name="dav">    0.44    0.44</time>
   <time name="total">    0.45    0.45</time>
   <energy>
    <i name="alphaZ">     65.06168483 </i>
    <i name="ewald">   -850.63678614 </i>
    <i name="hartreedc">    -68.76896203 </i>
    <i name="XCdc">      3.69683129 </i>
    <i name="pawpsdc">    696.70595042 </i>
    <i name="pawaedc">   -667.45827301 </i>
    <i name="eentropy">     -0.00069929 </i>
    <i name="bandstr">    127.99195452 </i>
    <i name="atom">    728.31920932 </i>
    <i name="e_fr_energy">     34.91090991 </i>
    <i name="e_wo_entrp">     34.91160920 </i>
    <i name="e_0_energy">     34.91125956 </i>
   </energy>
  </scstep>
  <scstep>
   <time name="dav">    0.47    0.47</time>
   <time name="total">    0.47    0.47</time>
   <energy>
    <i name="e_fr_energy">     -5.31002604 </i>
    <i name="e_wo_entrp">     -5.30866272 </i>
    <i name="e_0_energy">     -5.30934438 </i>
   </energy>
  </scstep>
  <scstep>
   <time name="dav">    0.49    0.49</time>
   <time name="total">    0.49    0.49</time>
   <energy>
    <i name="e_fr_energy">     -5.82788377 </i>
    <i name="e_wo_entrp">     -5.82620997 </i>
    <i name="e_0_energy">     -5.82704687 </i>
   </energy>
  </scstep>
  <scstep>
   <time name="dav">    0.48    0.48</time>
   <time name="total">    0.48    0.48</time>
   <energy>
    <i name="e_fr_energy">     -5.82992503 </i>
    <i name="e_wo_entrp">     -5.82825331 </i>
    <i name="e_0_energy">     -5.82908917 </i>
   </energy>
  </scstep>
  <scstep>
   <time name="dav">    0.48    0.48</time>
   <time name="total">    0.49    0.49</time>
   <energy>
    <i name="e_fr_energy">     -5.82994068 </i>
    <i name="e_wo_entrp">     -5.82826899 </i>
    <i name="e_0_energy">     -5.82910483 </i>
   </energy>
  </scstep>
  <scstep>
   <time name="dav">    0.45    0.45</time>
   <time name="total">    0.47    0.47</time>
   <energy>
    <i name="e_fr_energy">     -5.53422651 </i>
    <i name="e_wo_entrp">     -5.53223651 </i>
    <i name="e_0_energy">     -5.53323151 </i>
   </energy>
  </scstep>
  <scstep>
   <time name="dav">    0.47    0.47</time>
   <time name="total">    0.48    0.49</time>
   <energy>
    <i name="e_fr_energy">     -5.48957229 </i>
    <i name="e_wo_entrp">     -5.48758153 </i>
    <i name="e_0_energy">     -5.48857691 </i>
   </energy>
  </scstep>
  <scstep>
   <time name="dav">    0.46    0.46</time>
   <time name="total">    0.47    0.47</time>
   <energy>
    <i name="e_fr_energy">     -5.48636886 </i>
    <i name="e_wo_entrp">     -5.48440967 </i>
    <i name="e_0_energy">     -5.48538926 </i>
   </energy>
  </scstep>
  <scstep>
   <time name="dav">    0.46    0.46</time>
   <time name="total">    0.47    0.47</time>
   <energy>
    <i name="e_fr_energy">     -5.48613190 </i>
    <i name="e_wo_entrp">     -5.48416662 </i>
    <i name="e_0_energy">     -5.48514926 </i>
   </energy>
  </scstep>
  <scstep>
   <time name="dav">    0.31    0.32</time>
   <time name="total">    0.32    0.32</time>
   <energy>
    <i name="alphaZ">     65.06168483 </i>
    <i name="ewald">   -850.63678614 </i>
    <i name="hartreedc">    -58.61999657 </i>
    <i name="XCdc">      3.38422195 </i>
    <i name="pawpsdc">    966.43893353 </i>
    <i name="pawaedc">   -940.61323301 </i>
    <i name="eentropy">     -0.00196323 </i>
    <i name="bandstr">     81.18179397 </i>
    <i name="atom">    728.31920932 </i>
    <i name="e_fr_energy">     -5.48613535 </i>
    <i name="e_wo_entrp">     -5.48417212 </i>
    <i name="e_0_energy">     -5.48515373 </i>
   </energy>
  </scstep>
  <structure>
   <crystal>
    <varray name="basis" >
     <v>       2.37642500       0.00000500       1.37204300 </v>
     <v>       0.79214700       2.24051200       1.37204300 </v>
     <v>       0.00000600       0.00000500       2.74406500 </v>
    </varray>
    <i name="volume">     14.61048346 </i>
    <varray name="rec_basis" >
     <v>       0.42080084      -0.14877637      -0.00000065 </v>
     <v>      -0.00000047       0.44632722      -0.00000081 </v>
     <v>      -0.21040180      -0.14877656       0.36442359 </v>
    </varray>
   </crystal>
   <varray name="positions" >
    <v>       0.00000000       0.00000000       0.00000000 </v>
   </varray>
  </structure>
  <varray name="forces" >
   <v>      -0.00000817       0.00000434       0.00000102 </v>
  </varray>
  <energy>
   <i name="e_fr_energy">     -5.48613535 </i>
   <i name="e_wo_entrp">     -5.48417212 </i>
   <i name="e_0_energy">     -5.48515373 </i>
  </energy>
  <time name="totalsc">    4.66    4.68</time>
  <eigenvalues>
   <array>
    <dimension dim="1">band</dimension>
    <dimension dim="2">kpoint</dimension>
    <dimension dim="3">spin</dimension>
    <field>eigene</field>
    <field>occ</field>
    <set>
     <set comment="spin 1">
      <set comment="kpoint 1">
       <r>    1.4183    1.0000 </r>
       <r>    7.9532    1.0000 </r>
       <r>    7.9533    1.0000 </r>
       <r>    7.9533    1.0000 </r>
       <r>   10.2166    1.0000 </r>
       <r>   10.2166    1.0000 </r>
       <r>   26.4926    0.0000 </r>
       <r>   31.6539    0.0000 </r>
       <r>   31.6542    0.0000 </r>
       <r>   31.6542    0.0000 </r>
       <r>   37.1137    0.0000 </r>
       <r>   44.4096    0.0000 </r>
      </set>
      <set comment="kpoint 2">
       <r>    2.4958    1.0000 </r>
       <r>    7.5740    1.0000 </r>
       <r>    8.2948    1.0000 </r>
       <r>    8.2950    1.0000 </r>
       <r>   10.1027    1.0000 </r>
       <r>   10.1027    1.0000 </r>
       <r>   27.9822    0.0000 </r>
       <r>   27.9976    0.0000 </r>
       <r>   33.3651    0.0000 </r>
       <r>   33.3653    0.0000 </r>
       <r>   37.3636    0.0000 </r>
       <r>   40.1335    0.0000 </r>
      </set>
      <set comment="kpoint 3">
       <r>    2.4958    1.0000 </r>
       <r>    7.5740    1.0000 </r>
       <r>    8.2948    1.0000 </r>
       <r>    8.2950    1.0000 </r>
       <r>   10.1027    1.0000 </r>
       <r>   10.1027    1.0000 </r>
       <r>   27.9822    0.0000 </r>
       <r>   27.9976    0.0000 </r>
       <r>   33.3651    0.0000 </r>
       <r>   33.3653    0.0000 </r>
       <r>   37.3636    0.0000 </r>
       <r>   40.1335    0.0000 </r>
      </set>
      <set comment="kpoint 4">
       <r>    2.4958    1.0000 </r>
       <r>    7.5740    1.0000 </r>
       <r>    8.2948    1.0000 </r>
       <r>    8.2950    1.0000 </r>
       <r>   10.1027    1.0000 </r>
       <r>   10.1027    1.0000 </r>
       <r>   27.9822    0.0000 </r>
       <r>   27.9976    0.0000 </r>
       <r>   33.3651    0.0000 </r>
       <r>   33.3653    0.0000 </r>
       <r>   37.3636    0.0000 </r>
       <r>   40.1335    0.0000 </r>
      </set>
      <set comment="kpoint 5">
       <r>    2.4958    1.0000 </r>
       <r>    7.5739    1.0000 </r>
       <r>    8.2949    1.0000 </r>
       <r>    8.2949    1.0000 </r>
       <r>   10.1028    1.0000 </r>
       <r>   10.1028    1.0000 </r>
       <r>   27.9822    0.0000 </r>
       <r>   27.9974    0.0000 </r>
       <r>   33.3653    0.0000 </r>
       <r>   33.3653    0.0000 </r>
       <r>   37.3635    0.0000 </r>
       <r>   40.1334    0.0000 </r>
      </set>
      <set comment="kpoint 6">
       <r>    4.1616    1.0000 </r>
       <r>    8.1561    1.0000 </r>
       <r>    8.1563    1.0000 </r>
       <r>    8.5076    1.0000 </r>
       <r>   11.0559    1.0000 </r>
       <r>   11.0559    1.0000 </r>
       <r>   22.5284    0.0000 </r>
       <r>   27.3663    0.0000 </r>
       <r>   33.7067    0.0000 </r>
       <r>   33.7070    0.0000 </r>
       <r>   37.2930    0.0000 </r>
       <r>   37.9735    0.0000 </r>
      </set>
      <set comment="kpoint 7">
       <r>    4.1616    1.0000 </r>
       <r>    8.1561    1.0000 </r>
       <r>    8.1563    1.0000 </r>
       <r>    8.5076    1.0000 </r>
       <r>   11.0559    1.0000 </r>
       <r>   11.0559    1.0000 </r>
       <r>   22.5284    0.0000 </r>
       <r>   27.3663    0.0000 </r>
       <r>   33.7067    0.0000 </r>
       <r>   33.7069    0.0000 </r>
       <r>   37.2930    0.0000 </r>
       <r>   37.9734    0.0000 </r>
      </set>
      <set comment="kpoint 8">
       <r>    4.1616    1.0000 </r>
       <r>    8.1561    1.0000 </r>
       <r>    8.1563    1.0000 </r>
       <r>    8.5076    1.0000 </r>
       <r>   11.0559    1.0000 </r>
       <r>   11.0559    1.0000 </r>
       <r>   22.5284    0.0000 </r>
       <r>   27.3663    0.0000 </r>
       <r>   33.7067    0.0000 </r>
       <r>   33.7070    0.0000 </r>
       <r>   37.2930    0.0000 </r>
       <r>   37.9735    0.0000 </r>
      </set>
      <set comment="kpoint 9">
       <r>    4.1616    1.0000 </r>
       <r>    8.1562    1.0000 </r>
       <r>    8.1562    1.0000 </r>
       <r>    8.5075    1.0000 </r>
       <r>   11.0559    1.0000 </r>
       <r>   11.0559    1.0000 </r>
       <r>   22.5282    0.0000 </r>
       <r>   27.3663    0.0000 </r>
       <r>   33.7069    0.0000 </r>
       <r>   33.7070    0.0000 </r>
       <r>   37.2929    0.0000 </r>
       <r>   37.9735    0.0000 </r>
      </set>
      <set comment="kpoint 10">
       <r>    4.3031    1.0000 </r>
       <r>    7.8828    1.0000 </r>
       <r>    7.8830    1.0000 </r>
       <r>   11.3827    1.0000 </r>
       <r>   11.9729    0.5466 </r>
       <r>   11.9730    0.5459 </r>
       <r>   18.0605    0.0000 </r>
       <r>   26.0761    0.0000 </r>
       <r>   31.1731    0.0000 </r>
       <r>   31.1732    0.0000 </r>
       <r>   40.9230    0.0000 </r>
       <r>   40.9230    0.0000 </r>
      </set>
      <set comment="kpoint 11">
       <r>    4.3031    1.0000 </r>
       <r>    7.8829    1.0000 </r>
       <r>    7.8830    1.0000 </r>
       <r>   11.3827    1.0000 </r>
       <r>   11.9729    0.5466 </r>
       <r>   11.9730    0.5459 </r>
       <r>   18.0605    0.0000 </r>
       <r>   26.0761    0.0000 </r>
       <r>   31.1731    0.0000 </r>
       <r>   31.1732    0.0000 </r>
       <r>   40.9229    0.0000 </r>
       <r>   40.9230    0.0000 </r>
      </set>
      <set comment="kpoint 12">
       <r>    4.3031    1.0000 </r>
       <r>    7.8829    1.0000 </r>
       <r>    7.8830    1.0000 </r>
       <r>   11.3827    1.0000 </r>
       <r>   11.9729    0.5466 </r>
       <r>   11.9730    0.5459 </r>
       <r>   18.0605    0.0000 </r>
       <r>   26.0761    0.0000 </r>
       <r>   31.1730    0.0000 </r>
       <r>   31.1732    0.0000 </r>
       <r>   40.9229    0.0000 </r>
       <r>   40.9230    0.0000 </r>
      </set>
      <set comment="kpoint 13">
       <r>    4.3030    1.0000 </r>
       <r>    7.8829    1.0000 </r>
       <r>    7.8829    1.0000 </r>
       <r>   11.3826    1.0000 </r>
       <r>   11.9729    0.5466 </r>
       <r>   11.9729    0.5465 </r>
       <r>   18.0603    0.0000 </r>
       <r>   26.0762    0.0000 </r>
       <r>   31.1733    0.0000 </r>
       <r>   31.1733    0.0000 </r>
       <r>   40.9231    0.0000 </r>
       <r>   40.9231    0.0000 </r>
      </set>
      <set comment="kpoint 14">
       <r>    2.8694    1.0000 </r>
       <r>    7.0571    1.0000 </r>
       <r>    8.7466    1.0000 </r>
       <r>    8.7467    1.0000 </r>
       <r>    9.2497    1.0000 </r>
       <r>   10.6073    1.0000 </r>
       <r>   28.7696    0.0000 </r>
       <r>   29.8288    0.0000 </r>
       <r>   31.4033    0.0000 </r>
       <r>   31.4035    0.0000 </r>
       <r>   38.8157    0.0000 </r>
       <r>   39.1816    0.0000 </r>
      </set>
      <set comment="kpoint 15">
       <r>    2.8694    1.0000 </r>
       <r>    7.0571    1.0000 </r>
       <r>    8.7466    1.0000 </r>
       <r>    8.7467    1.0000 </r>
       <r>    9.2497    1.0000 </r>
       <r>   10.6073    1.0000 </r>
       <r>   28.7696    0.0000 </r>
       <r>   29.8288    0.0000 </r>
       <r>   31.4032    0.0000 </r>
       <r>   31.4035    0.0000 </r>
       <r>   38.8157    0.0000 </r>
       <r>   39.1815    0.0000 </r>
      </set>
      <set comment="kpoint 16">
       <r>    2.8694    1.0000 </r>
       <r>    7.0571    1.0000 </r>
       <r>    8.7467    1.0000 </r>
       <r>    8.7467    1.0000 </r>
       <r>    9.2497    1.0000 </r>
       <r>   10.6073    1.0000 </r>
       <r>   28.7696    0.0000 </r>
       <r>   29.8288    0.0000 </r>
       <r>   31.4033    0.0000 </r>
       <r>   31.4034    0.0000 </r>
       <r>   38.8157    0.0000 </r>
       <r>   39.1816    0.0000 </r>
      </set>
      <set comment="kpoint 17">
       <r>    4.6030    1.0000 </r>
       <r>    6.7140    1.0000 </r>
       <r>    8.0586    1.0000 </r>
       <r>    9.0841    1.0000 </r>
       <r>   10.8109    1.0000 </r>
       <r>   11.3797    1.0000 </r>
       <r>   25.0656    0.0000 </r>
       <r>   29.1346    0.0000 </r>
       <r>   30.2442    0.0000 </r>
       <r>   32.1712    0.0000 </r>
       <r>   36.8396    0.0000 </r>
       <r>   38.3349    0.0000 </r>
      </set>
      <set comment="kpoint 18">
       <r>    4.6030    1.0000 </r>
       <r>    6.7140    1.0000 </r>
       <r>    8.0586    1.0000 </r>
       <r>    9.0841    1.0000 </r>
       <r>   10.8109    1.0000 </r>
       <r>   11.3797    1.0000 </r>
       <r>   25.0656    0.0000 </r>
       <r>   29.1346    0.0000 </r>
       <r>   30.2442    0.0000 </r>
       <r>   32.1712    0.0000 </r>
       <r>   36.8396    0.0000 </r>
       <r>   38.3349    0.0000 </r>
      </set>
      <set comment="kpoint 19">
       <r>    4.6030    1.0000 </r>
       <r>    6.7140    1.0000 </r>
       <r>    8.0586    1.0000 </r>
       <r>    9.0841    1.0000 </r>
       <r>   10.8109    1.0000 </r>
       <r>   11.3797    1.0000 </r>
       <r>   25.0656    0.0000 </r>
       <r>   29.1346    0.0000 </r>
       <r>   30.2442    0.0000 </r>
       <r>   32.1712    0.0000 </r>
       <r>   36.8396    0.0000 </r>
       <r>   38.3349    0.0000 </r>
      </set>
      <set comment="kpoint 20">
       <r>    4.6030    1.0000 </r>
       <r>    6.7140    1.0000 </r>
       <r>    8.0586    1.0000 </r>
       <r>    9.0842    1.0000 </r>
       <r>   10.8109    1.0000 </r>
       <r>   11.3797    1.0000 </r>
       <r>   25.0656    0.0000 </r>
       <r>   29.1345    0.0000 </r>
       <r>   30.2444    0.0000 </r>
       <r>   32.1713    0.0000 </r>
       <r>   36.8394    0.0000 </r>
       <r>   38.3350    0.0000 </r>
      </set>
      <set comment="kpoint 21">
       <r>    4.6030    1.0000 </r>
       <r>    6.7140    1.0000 </r>
       <r>    8.0586    1.0000 </r>
       <r>    9.0841    1.0000 </r>
       <r>   10.8109    1.0000 </r>
       <r>   11.3797    1.0000 </r>
       <r>   25.0654    0.0000 </r>
       <r>   29.1346    0.0000 </r>
       <r>   30.2444    0.0000 </r>
       <r>   32.1712    0.0000 </r>
       <r>   36.8396    0.0000 </r>
       <r>   38.3350    0.0000 </r>
      </set>
      <set comment="kpoint 22">
       <r>    4.6030    1.0000 </r>
       <r>    6.7140    1.0000 </r>
       <r>    8.0586    1.0000 </r>
       <r>    9.0841    1.0000 </r>
       <r>   10.8109    1.0000 </r>
       <r>   11.3797    1.0000 </r>
       <r>   25.0656    0.0000 </r>
       <r>   29.1346    0.0000 </r>
       <r>   30.2442    0.0000 </r>
       <r>   32.1712    0.0000 </r>
       <r>   36.8396    0.0000 </r>
       <r>   38.3349    0.0000 </r>
      </set>
      <set comment="kpoint 23">
       <r>    4.6030    1.0000 </r>
       <r>    6.7140    1.0000 </r>
       <r>    8.0586    1.0000 </r>
       <r>    9.0842    1.0000 </r>
       <r>   10.8109    1.0000 </r>
       <r>   11.3797    1.0000 </r>
       <r>   25.0655    0.0000 </r>
       <r>   29.1345    0.0000 </r>
       <r>   30.2444    0.0000 </r>
       <r>   32.1713    0.0000 </r>
       <r>   36.8394    0.0000 </r>
       <r>   38.3350    0.0000 </r>
      </set>
      <set comment="kpoint 24">
       <r>    4.6030    1.0000 </r>
       <r>    6.7140    1.0000 </r>
       <r>    8.0586    1.0000 </r>
       <r>    9.0841    1.0000 </r>
       <r>   10.8109    1.0000 </r>
       <r>   11.3797    1.0000 </r>
       <r>   25.0654    0.0000 </r>
       <r>   29.1346    0.0000 </r>
       <r>   30.2444    0.0000 </r>
       <r>   32.1712    0.0000 </r>
       <r>   36.8396    0.0000 </r>
       <r>   38.3350    0.0000 </r>
      </set>
      <set comment="kpoint 25">
       <r>    4.6030    1.0000 </r>
       <r>    6.7140    1.0000 </r>
       <r>    8.0586    1.0000 </r>
       <r>    9.0841    1.0000 </r>
       <r>   10.8109    1.0000 </r>
       <r>   11.3797    1.0000 </r>
       <r>   25.0656    0.0000 </r>
       <r>   29.1346    0.0000 </r>
       <r>   30.2442    0.0000 </r>
       <r>   32.1712    0.0000 </r>
       <r>   36.8396    0.0000 </r>
       <r>   38.3349    0.0000 </r>
      </set>
      <set comment="kpoint 26">
       <r>    4.6030    1.0000 </r>
       <r>    6.7140    1.0000 </r>
       <r>    8.0586    1.0000 </r>
       <r>    9.0842    1.0000 </r>
       <r>   10.8109    1.0000 </r>
       <r>   11.3797    1.0000 </r>
       <r>   25.0656    0.0000 </r>
       <r>   29.1345    0.0000 </r>
       <r>   30.2444    0.0000 </r>
       <r>   32.1713    0.0000 </r>
       <r>   36.8394    0.0000 </r>
       <r>   38.3350    0.0000 </r>
      </set>
      <set comment="kpoint 27">
       <r>    4.6030    1.0000 </r>
       <r>    6.7140    1.0000 </r>
       <r>    8.0586    1.0000 </r>
       <r>    9.0841    1.0000 </r>
       <r>   10.8109    1.0000 </r>
       <r>   11.3797    1.0000 </r>
       <r>   25.0654    0.0000 </r>
       <r>   29.1346    0.0000 </r>
       <r>   30.2444    0.0000 </r>
       <r>   32.1712    0.0000 </r>
       <r>   36.8396    0.0000 </r>
       <r>   38.3350    0.0000 </r>
      </set>
      <set comment="kpoint 28">
       <r>    4.6030    1.0000 </r>
       <r>    6.7140    1.0000 </r>
       <r>    8.0586    1.0000 </r>
       <r>    9.0841    1.0000 </r>
       <r>   10.8109    1.0000 </r>
       <r>   11.3797    1.0000 </r>
       <r>   25.0656    0.0000 </r>
       <r>   29.1346    0.0000 </r>
       <r>   30.2442    0.0000 </r>
       <r>   32.1712    0.0000 </r>
       <r>   36.8396    0.0000 </r>
       <r>   38.3349    0.0000 </r>
      </set>
      <set comment="kpoint 29">
       <r>    5.0862    1.0000 </r>
       <r>    7.2634    1.0000 </r>
       <r>    8.5872    1.0000 </r>
       <r>    8.6915    1.0000 </r>
       <r>   12.0378    0.0428 </r>
       <r>   14.4789    0.0000 </r>
       <r>   18.6414    0.0000 </r>
       <r>   27.2429    0.0000 </r>
       <r>   29.6648    0.0000 </r>
       <r>   30.0785    0.0000 </r>
       <r>   39.6253    0.0000 </r>
       <r>   41.0006    0.0000 </r>
      </set>
      <set comment="kpoint 30">
       <r>    5.0862    1.0000 </r>
       <r>    7.2634    1.0000 </r>
       <r>    8.5872    1.0000 </r>
       <r>    8.6915    1.0000 </r>
       <r>   12.0378    0.0428 </r>
       <r>   14.4789    0.0000 </r>
       <r>   18.6415    0.0000 </r>
       <r>   27.2429    0.0000 </r>
       <r>   29.6647    0.0000 </r>
       <r>   30.0785    0.0000 </r>
       <r>   39.6253    0.0000 </r>
       <r>   41.0006    0.0000 </r>
      </set>
      <set comment="kpoint 31">
       <r>    5.0862    1.0000 </r>
       <r>    7.2634    1.0000 </r>
       <r>    8.5872    1.0000 </r>
       <r>    8.6915    1.0000 </r>
       <r>   12.0378    0.0428 </r>
       <r>   14.4789    0.0000 </r>
       <r>   18.6414    0.0000 </r>
       <r>   27.2429    0.0000 </r>
       <r>   29.6647    0.0000 </r>
       <r>   30.0785    0.0000 </r>
       <r>   39.6253    0.0000 </r>
       <r>   41.0006    0.0000 </r>
      </set>
      <set comment="kpoint 32">
       <r>    5.0862    1.0000 </r>
       <r>    7.2633    1.0000 </r>
       <r>    8.5872    1.0000 </r>
       <r>    8.6916    1.0000 </r>
       <r>   12.0379    0.0427 </r>
       <r>   14.4789    0.0000 </r>
       <r>   18.6414    0.0000 </r>
       <r>   27.2428    0.0000 </r>
       <r>   29.6649    0.0000 </r>
       <r>   30.0785    0.0000 </r>
       <r>   39.6254    0.0000 </r>
       <r>   41.0006    0.0000 </r>
      </set>
      <set comment="kpoint 33">
       <r>    5.0862    1.0000 </r>
       <r>    7.2634    1.0000 </r>
       <r>    8.5872    1.0000 </r>
       <r>    8.6916    1.0000 </r>
       <r>   12.0378    0.0428 </r>
       <r>   14.4788    0.0000 </r>
       <r>   18.6413    0.0000 </r>
       <r>   27.2429    0.0000 </r>
       <r>   29.6649    0.0000 </r>
       <r>   30.0786    0.0000 </r>
       <r>   39.6254    0.0000 </r>
       <r>   41.0007    0.0000 </r>
      </set>
      <set comment="kpoint 34">
       <r>    5.0862    1.0000 </r>
       <r>    7.2634    1.0000 </r>
       <r>    8.5872    1.0000 </r>
       <r>    8.6915    1.0000 </r>
       <r>   12.0378    0.0428 </r>
       <r>   14.4789    0.0000 </r>
       <r>   18.6415    0.0000 </r>
       <r>   27.2429    0.0000 </r>
       <r>   29.6647    0.0000 </r>
       <r>   30.0785    0.0000 </r>
       <r>   39.6253    0.0000 </r>
       <r>   41.0006    0.0000 </r>
      </set>
      <set comment="kpoint 35">
       <r>    5.0862    1.0000 </r>
       <r>    7.2633    1.0000 </r>
       <r>    8.5872    1.0000 </r>
       <r>    8.6916    1.0000 </r>
       <r>   12.0379    0.0427 </r>
       <r>   14.4788    0.0000 </r>
       <r>   18.6414    0.0000 </r>
       <r>   27.2428    0.0000 </r>
       <r>   29.6649    0.0000 </r>
       <r>   30.0785    0.0000 </r>
       <r>   39.6254    0.0000 </r>
       <r>   41.0006    0.0000 </r>
      </set>
      <set comment="kpoint 36">
       <r>    5.0862    1.0000 </r>
       <r>    7.2634    1.0000 </r>
       <r>    8.5872    1.0000 </r>
       <r>    8.6916    1.0000 </r>
       <r>   12.0378    0.0428 </r>
       <r>   14.4788    0.0000 </r>
       <r>   18.6413    0.0000 </r>
       <r>   27.2429    0.0000 </r>
       <r>   29.6649    0.0000 </r>
       <r>   30.0786    0.0000 </r>
       <r>   39.6254    0.0000 </r>
       <r>   41.0007    0.0000 </r>
      </set>
      <set comment="kpoint 37">
       <r>    5.0862    1.0000 </r>
       <r>    7.2634    1.0000 </r>
       <r>    8.5872    1.0000 </r>
       <r>    8.6915    1.0000 </r>
       <r>   12.0378    0.0428 </r>
       <r>   14.4789    0.0000 </r>
       <r>   18.6414    0.0000 </r>
       <r>   27.2429    0.0000 </r>
       <r>   29.6647    0.0000 </r>
       <r>   30.0785    0.0000 </r>
       <r>   39.6253    0.0000 </r>
       <r>   41.0006    0.0000 </r>
      </set>
      <set comment="kpoint 38">
       <r>    5.0862    1.0000 </r>
       <r>    7.2633    1.0000 </r>
       <r>    8.5872    1.0000 </r>
       <r>    8.6916    1.0000 </r>
       <r>   12.0379    0.0427 </r>
       <r>   14.4789    0.0000 </r>
       <r>   18.6414    0.0000 </r>
       <r>   27.2428    0.0000 </r>
       <r>   29.6649    0.0000 </r>
       <r>   30.0785    0.0000 </r>
       <r>   39.6254    0.0000 </r>
       <r>   41.0006    0.0000 </r>
      </set>
      <set comment="kpoint 39">
       <r>    5.0862    1.0000 </r>
       <r>    7.2634    1.0000 </r>
       <r>    8.5872    1.0000 </r>
       <r>    8.6916    1.0000 </r>
       <r>   12.0378    0.0428 </r>
       <r>   14.4788    0.0000 </r>
       <r>   18.6413    0.0000 </r>
       <r>   27.2429    0.0000 </r>
       <r>   29.6649    0.0000 </r>
       <r>   30.0786    0.0000 </r>
       <r>   39.6254    0.0000 </r>
       <r>   41.0007    0.0000 </r>
      </set>
      <set comment="kpoint 40">
       <r>    5.0862    1.0000 </r>
       <r>    7.2634    1.0000 </r>
       <r>    8.5872    1.0000 </r>
       <r>    8.6915    1.0000 </r>
       <r>   12.0378    0.0428 </r>
       <r>   14.4789    0.0000 </r>
       <r>   18.6414    0.0000 </r>
       <r>   27.2429    0.0000 </r>
       <r>   29.6648    0.0000 </r>
       <r>   30.0785    0.0000 </r>
       <r>   39.6253    0.0000 </r>
       <r>   41.0006    0.0000 </r>
      </set>
      <set comment="kpoint 41">
       <r>    5.2112    1.0000 </r>
       <r>    7.4805    1.0000 </r>
       <r>    8.2085    1.0000 </r>
       <r>    8.6587    1.0000 </r>
       <r>   10.7979    1.0000 </r>
       <r>   13.7496    0.0000 </r>
       <r>   20.8962    0.0000 </r>
       <r>   27.0738    0.0000 </r>
       <r>   28.9969    0.0000 </r>
       <r>   33.0012    0.0000 </r>
       <r>   36.4382    0.0000 </r>
       <r>   40.4485    0.0000 </r>
      </set>
      <set comment="kpoint 42">
       <r>    5.2112    1.0000 </r>
       <r>    7.4805    1.0000 </r>
       <r>    8.2085    1.0000 </r>
       <r>    8.6587    1.0000 </r>
       <r>   10.7979    1.0000 </r>
       <r>   13.7496    0.0000 </r>
       <r>   20.8962    0.0000 </r>
       <r>   27.0737    0.0000 </r>
       <r>   28.9969    0.0000 </r>
       <r>   33.0012    0.0000 </r>
       <r>   36.4382    0.0000 </r>
       <r>   40.4485    0.0000 </r>
      </set>
      <set comment="kpoint 43">
       <r>    5.2112    1.0000 </r>
       <r>    7.4805    1.0000 </r>
       <r>    8.2085    1.0000 </r>
       <r>    8.6587    1.0000 </r>
       <r>   10.7979    1.0000 </r>
       <r>   13.7496    0.0000 </r>
       <r>   20.8962    0.0000 </r>
       <r>   27.0737    0.0000 </r>
       <r>   28.9969    0.0000 </r>
       <r>   33.0012    0.0000 </r>
       <r>   36.4382    0.0000 </r>
       <r>   40.4485    0.0000 </r>
      </set>
      <set comment="kpoint 44">
       <r>    5.2112    1.0000 </r>
       <r>    7.4804    1.0000 </r>
       <r>    8.2085    1.0000 </r>
       <r>    8.6588    1.0000 </r>
       <r>   10.7979    1.0000 </r>
       <r>   13.7495    0.0000 </r>
       <r>   20.8962    0.0000 </r>
       <r>   27.0736    0.0000 </r>
       <r>   28.9969    0.0000 </r>
       <r>   33.0013    0.0000 </r>
       <r>   36.4383    0.0000 </r>
       <r>   40.4485    0.0000 </r>
      </set>
      <set comment="kpoint 45">
       <r>    5.2112    1.0000 </r>
       <r>    7.4804    1.0000 </r>
       <r>    8.2085    1.0000 </r>
       <r>    8.6587    1.0000 </r>
       <r>   10.7979    1.0000 </r>
       <r>   13.7495    0.0000 </r>
       <r>   20.8960    0.0000 </r>
       <r>   27.0738    0.0000 </r>
       <r>   28.9970    0.0000 </r>
       <r>   33.0013    0.0000 </r>
       <r>   36.4382    0.0000 </r>
       <r>   40.4487    0.0000 </r>
      </set>
      <set comment="kpoint 46">
       <r>    5.2112    1.0000 </r>
       <r>    7.4804    1.0000 </r>
       <r>    8.2085    1.0000 </r>
       <r>    8.6587    1.0000 </r>
       <r>   10.7979    1.0000 </r>
       <r>   13.7496    0.0000 </r>
       <r>   20.8962    0.0000 </r>
       <r>   27.0737    0.0000 </r>
       <r>   28.9969    0.0000 </r>
       <r>   33.0012    0.0000 </r>
       <r>   36.4382    0.0000 </r>
       <r>   40.4485    0.0000 </r>
      </set>
      <set comment="kpoint 47">
       <r>    5.2112    1.0000 </r>
       <r>    7.4804    1.0000 </r>
       <r>    8.2085    1.0000 </r>
       <r>    8.6588    1.0000 </r>
       <r>   10.7979    1.0000 </r>
       <r>   13.7495    0.0000 </r>
       <r>   20.8962    0.0000 </r>
       <r>   27.0736    0.0000 </r>
       <r>   28.9969    0.0000 </r>
       <r>   33.0013    0.0000 </r>
       <r>   36.4383    0.0000 </r>
       <r>   40.4486    0.0000 </r>
      </set>
      <set comment="kpoint 48">
       <r>    5.2112    1.0000 </r>
       <r>    7.4804    1.0000 </r>
       <r>    8.2085    1.0000 </r>
       <r>    8.6587    1.0000 </r>
       <r>   10.7979    1.0000 </r>
       <r>   13.7495    0.0000 </r>
       <r>   20.8960    0.0000 </r>
       <r>   27.0738    0.0000 </r>
       <r>   28.9970    0.0000 </r>
       <r>   33.0013    0.0000 </r>
       <r>   36.4382    0.0000 </r>
       <r>   40.4487    0.0000 </r>
      </set>
      <set comment="kpoint 49">
       <r>    5.2112    1.0000 </r>
       <r>    7.4805    1.0000 </r>
       <r>    8.2085    1.0000 </r>
       <r>    8.6587    1.0000 </r>
       <r>   10.7979    1.0000 </r>
       <r>   13.7496    0.0000 </r>
       <r>   20.8962    0.0000 </r>
       <r>   27.0738    0.0000 </r>
       <r>   28.9969    0.0000 </r>
       <r>   33.0012    0.0000 </r>
       <r>   36.4382    0.0000 </r>
       <r>   40.4485    0.0000 </r>
      </set>
      <set comment="kpoint 50">
       <r>    5.2112    1.0000 </r>
       <r>    7.4804    1.0000 </r>
       <r>    8.2085    1.0000 </r>
       <r>    8.6587    1.0000 </r>
       <r>   10.7979    1.0000 </r>
       <r>   13.7495    0.0000 </r>
       <r>   20.8962    0.0000 </r>
       <r>   27.0736    0.0000 </r>
       <r>   28.9969    0.0000 </r>
       <r>   33.0013    0.0000 </r>
       <r>   36.4383    0.0000 </r>
       <r>   40.4485    0.0000 </r>
      </set>
      <set comment="kpoint 51">
       <r>    5.2112    1.0000 </r>
       <r>    7.4804    1.0000 </r>
       <r>    8.2085    1.0000 </r>
       <r>    8.6587    1.0000 </r>
       <r>   10.7979    1.0000 </r>
       <r>   13.7495    0.0000 </r>
       <r>   20.8960    0.0000 </r>
       <r>   27.0738    0.0000 </r>
       <r>   28.9970    0.0000 </r>
       <r>   33.0013    0.0000 </r>
       <r>   36.4382    0.0000 </r>
       <r>   40.4487    0.0000 </r>
      </set>
      <set comment="kpoint 52">
       <r>    5.2112    1.0000 </r>
       <r>    7.4805    1.0000 </r>
       <r>    8.2085    1.0000 </r>
       <r>    8.6587    1.0000 </r>
       <r>   10.7979    1.0000 </r>
       <r>   13.7496    0.0000 </r>
       <r>   20.8962    0.0000 </r>
       <r>   27.0738    0.0000 </r>
       <r>   28.9969    0.0000 </r>
       <r>   33.0012    0.0000 </r>
       <r>   36.4382    0.0000 </r>
       <r>   40.4485    0.0000 </r>
      </set>
      <set comment="kpoint 53">
       <r>    4.0400    1.0000 </r>
       <r>    7.0524    1.0000 </r>
       <r>    8.2687    1.0000 </r>
       <r>    9.0004    1.0000 </r>
       <r>    9.3101    1.0000 </r>
       <r>   11.4585    1.0000 </r>
       <r>   26.2377    0.0000 </r>
       <r>   28.7141    0.0000 </r>
       <r>   31.8522    0.0000 </r>
       <r>   31.9284    0.0000 </r>
       <r>   36.8811    0.0000 </r>
       <r>   40.4102    0.0000 </r>
      </set>
      <set comment="kpoint 54">
       <r>    4.0400    1.0000 </r>
       <r>    7.0524    1.0000 </r>
       <r>    8.2688    1.0000 </r>
       <r>    9.0004    1.0000 </r>
       <r>    9.3101    1.0000 </r>
       <r>   11.4585    1.0000 </r>
       <r>   26.2377    0.0000 </r>
       <r>   28.7141    0.0000 </r>
       <r>   31.8522    0.0000 </r>
       <r>   31.9284    0.0000 </r>
       <r>   36.8811    0.0000 </r>
       <r>   40.4102    0.0000 </r>
      </set>
      <set comment="kpoint 55">
       <r>    4.0400    1.0000 </r>
       <r>    7.0524    1.0000 </r>
       <r>    8.2687    1.0000 </r>
       <r>    9.0004    1.0000 </r>
       <r>    9.3101    1.0000 </r>
       <r>   11.4585    1.0000 </r>
       <r>   26.2377    0.0000 </r>
       <r>   28.7141    0.0000 </r>
       <r>   31.8522    0.0000 </r>
       <r>   31.9283    0.0000 </r>
       <r>   36.8811    0.0000 </r>
       <r>   40.4102    0.0000 </r>
      </set>
      <set comment="kpoint 56">
       <r>    4.0400    1.0000 </r>
       <r>    7.0524    1.0000 </r>
       <r>    8.2687    1.0000 </r>
       <r>    9.0005    1.0000 </r>
       <r>    9.3102    1.0000 </r>
       <r>   11.4585    1.0000 </r>
       <r>   26.2376    0.0000 </r>
       <r>   28.7139    0.0000 </r>
       <r>   31.8523    0.0000 </r>
       <r>   31.9283    0.0000 </r>
       <r>   36.8811    0.0000 </r>
       <r>   40.4104    0.0000 </r>
      </set>
      <set comment="kpoint 57">
       <r>    4.0400    1.0000 </r>
       <r>    7.0524    1.0000 </r>
       <r>    8.2687    1.0000 </r>
       <r>    9.0005    1.0000 </r>
       <r>    9.3102    1.0000 </r>
       <r>   11.4585    1.0000 </r>
       <r>   26.2376    0.0000 </r>
       <r>   28.7139    0.0000 </r>
       <r>   31.8523    0.0000 </r>
       <r>   31.9283    0.0000 </r>
       <r>   36.8811    0.0000 </r>
       <r>   40.4104    0.0000 </r>
      </set>
      <set comment="kpoint 58">
       <r>    4.0400    1.0000 </r>
       <r>    7.0524    1.0000 </r>
       <r>    8.2687    1.0000 </r>
       <r>    9.0005    1.0000 </r>
       <r>    9.3102    1.0000 </r>
       <r>   11.4585    1.0000 </r>
       <r>   26.2376    0.0000 </r>
       <r>   28.7139    0.0000 </r>
       <r>   31.8523    0.0000 </r>
       <r>   31.9283    0.0000 </r>
       <r>   36.8811    0.0000 </r>
       <r>   40.4104    0.0000 </r>
      </set>
      <set comment="kpoint 59">
       <r>    4.8580    1.0000 </r>
       <r>    5.6049    1.0000 </r>
       <r>    9.7373    1.0000 </r>
       <r>   10.8464    1.0000 </r>
       <r>   10.8464    1.0000 </r>
       <r>   11.4635    1.0000 </r>
       <r>   26.6551    0.0000 </r>
       <r>   26.6553    0.0000 </r>
       <r>   27.5124    0.0000 </r>
       <r>   31.3324    0.0000 </r>
       <r>   33.4347    0.0000 </r>
       <r>   41.7179    0.0000 </r>
      </set>
      <set comment="kpoint 60">
       <r>    4.8580    1.0000 </r>
       <r>    5.6049    1.0000 </r>
       <r>    9.7373    1.0000 </r>
       <r>   10.8464    1.0000 </r>
       <r>   10.8464    1.0000 </r>
       <r>   11.4635    1.0000 </r>
       <r>   26.6551    0.0000 </r>
       <r>   26.6553    0.0000 </r>
       <r>   27.5124    0.0000 </r>
       <r>   31.3324    0.0000 </r>
       <r>   33.4347    0.0000 </r>
       <r>   41.7179    0.0000 </r>
      </set>
      <set comment="kpoint 61">
       <r>    4.8580    1.0000 </r>
       <r>    5.6049    1.0000 </r>
       <r>    9.7373    1.0000 </r>
       <r>   10.8464    1.0000 </r>
       <r>   10.8464    1.0000 </r>
       <r>   11.4635    1.0000 </r>
       <r>   26.6551    0.0000 </r>
       <r>   26.6553    0.0000 </r>
       <r>   27.5124    0.0000 </r>
       <r>   31.3324    0.0000 </r>
       <r>   33.4347    0.0000 </r>
       <r>   41.7178    0.0000 </r>
      </set>
      <set comment="kpoint 62">
       <r>    5.1032    1.0000 </r>
       <r>    5.7036    1.0000 </r>
       <r>    9.4415    1.0000 </r>
       <r>   10.7042    1.0000 </r>
       <r>   12.1931    0.0000 </r>
       <r>   15.0887    0.0000 </r>
       <r>   20.6265    0.0000 </r>
       <r>   24.6701    0.0000 </r>
       <r>   25.7868    0.0000 </r>
       <r>   32.6637    0.0000 </r>
       <r>   36.5540    0.0000 </r>
       <r>   40.2565    0.0000 </r>
      </set>
      <set comment="kpoint 63">
       <r>    5.1032    1.0000 </r>
       <r>    5.7036    1.0000 </r>
       <r>    9.4415    1.0000 </r>
       <r>   10.7042    1.0000 </r>
       <r>   12.1931    0.0000 </r>
       <r>   15.0887    0.0000 </r>
       <r>   20.6265    0.0000 </r>
       <r>   24.6701    0.0000 </r>
       <r>   25.7868    0.0000 </r>
       <r>   32.6637    0.0000 </r>
       <r>   36.5540    0.0000 </r>
       <r>   40.2565    0.0000 </r>
      </set>
      <set comment="kpoint 64">
       <r>    5.1032    1.0000 </r>
       <r>    5.7036    1.0000 </r>
       <r>    9.4416    1.0000 </r>
       <r>   10.7042    1.0000 </r>
       <r>   12.1931    0.0000 </r>
       <r>   15.0887    0.0000 </r>
       <r>   20.6265    0.0000 </r>
       <r>   24.6701    0.0000 </r>
       <r>   25.7868    0.0000 </r>
       <r>   32.6637    0.0000 </r>
       <r>   36.5540    0.0000 </r>
       <r>   40.2565    0.0000 </r>
      </set>
      <set comment="kpoint 65">
       <r>    5.1031    1.0000 </r>
       <r>    5.7036    1.0000 </r>
       <r>    9.4416    1.0000 </r>
       <r>   10.7042    1.0000 </r>
       <r>   12.1931    0.0000 </r>
       <r>   15.0887    0.0000 </r>
       <r>   20.6264    0.0000 </r>
       <r>   24.6700    0.0000 </r>
       <r>   25.7870    0.0000 </r>
       <r>   32.6637    0.0000 </r>
       <r>   36.5538    0.0000 </r>
       <r>   40.2565    0.0000 </r>
      </set>
      <set comment="kpoint 66">
       <r>    5.1032    1.0000 </r>
       <r>    5.7036    1.0000 </r>
       <r>    9.4416    1.0000 </r>
       <r>   10.7042    1.0000 </r>
       <r>   12.1931    0.0000 </r>
       <r>   15.0887    0.0000 </r>
       <r>   20.6264    0.0000 </r>
       <r>   24.6701    0.0000 </r>
       <r>   25.7870    0.0000 </r>
       <r>   32.6638    0.0000 </r>
       <r>   36.5538    0.0000 </r>
       <r>   40.2566    0.0000 </r>
      </set>
      <set comment="kpoint 67">
       <r>    5.1032    1.0000 </r>
       <r>    5.7036    1.0000 </r>
       <r>    9.4415    1.0000 </r>
       <r>   10.7042    1.0000 </r>
       <r>   12.1931    0.0000 </r>
       <r>   15.0887    0.0000 </r>
       <r>   20.6265    0.0000 </r>
       <r>   24.6701    0.0000 </r>
       <r>   25.7868    0.0000 </r>
       <r>   32.6637    0.0000 </r>
       <r>   36.5540    0.0000 </r>
       <r>   40.2565    0.0000 </r>
      </set>
      <set comment="kpoint 68">
       <r>    5.1031    1.0000 </r>
       <r>    5.7036    1.0000 </r>
       <r>    9.4416    1.0000 </r>
       <r>   10.7042    1.0000 </r>
       <r>   12.1931    0.0000 </r>
       <r>   15.0887    0.0000 </r>
       <r>   20.6264    0.0000 </r>
       <r>   24.6700    0.0000 </r>
       <r>   25.7870    0.0000 </r>
       <r>   32.6638    0.0000 </r>
       <r>   36.5537    0.0000 </r>
       <r>   40.2565    0.0000 </r>
      </set>
      <set comment="kpoint 69">
       <r>    5.1032    1.0000 </r>
       <r>    5.7036    1.0000 </r>
       <r>    9.4416    1.0000 </r>
       <r>   10.7042    1.0000 </r>
       <r>   12.1931    0.0000 </r>
       <r>   15.0887    0.0000 </r>
       <r>   20.6264    0.0000 </r>
       <r>   24.6701    0.0000 </r>
       <r>   25.7870    0.0000 </r>
       <r>   32.6638    0.0000 </r>
       <r>   36.5538    0.0000 </r>
       <r>   40.2566    0.0000 </r>
      </set>
      <set comment="kpoint 70">
       <r>    5.1032    1.0000 </r>
       <r>    5.7036    1.0000 </r>
       <r>    9.4415    1.0000 </r>
       <r>   10.7042    1.0000 </r>
       <r>   12.1931    0.0000 </r>
       <r>   15.0887    0.0000 </r>
       <r>   20.6265    0.0000 </r>
       <r>   24.6701    0.0000 </r>
       <r>   25.7868    0.0000 </r>
       <r>   32.6637    0.0000 </r>
       <r>   36.5540    0.0000 </r>
       <r>   40.2565    0.0000 </r>
      </set>
      <set comment="kpoint 71">
       <r>    5.1031    1.0000 </r>
       <r>    5.7036    1.0000 </r>
       <r>    9.4416    1.0000 </r>
       <r>   10.7042    1.0000 </r>
       <r>   12.1931    0.0000 </r>
       <r>   15.0887    0.0000 </r>
       <r>   20.6264    0.0000 </r>
       <r>   24.6700    0.0000 </r>
       <r>   25.7870    0.0000 </r>
       <r>   32.6637    0.0000 </r>
       <r>   36.5538    0.0000 </r>
       <r>   40.2565    0.0000 </r>
      </set>
      <set comment="kpoint 72">
       <r>    5.1032    1.0000 </r>
       <r>    5.7036    1.0000 </r>
       <r>    9.4416    1.0000 </r>
       <r>   10.7042    1.0000 </r>
       <r>   12.1931    0.0000 </r>
       <r>   15.0887    0.0000 </r>
       <r>   20.6264    0.0000 </r>
       <r>   24.6701    0.0000 </r>
       <r>   25.7870    0.0000 </r>
       <r>   32.6638    0.0000 </r>
       <r>   36.5538    0.0000 </r>
       <r>   40.2566    0.0000 </r>
      </set>
      <set comment="kpoint 73">
       <r>    5.1032    1.0000 </r>
       <r>    5.7036    1.0000 </r>
       <r>    9.4415    1.0000 </r>
       <r>   10.7042    1.0000 </r>
       <r>   12.1931    0.0000 </r>
       <r>   15.0887    0.0000 </r>
       <r>   20.6265    0.0000 </r>
       <r>   24.6701    0.0000 </r>
       <r>   25.7868    0.0000 </r>
       <r>   32.6637    0.0000 </r>
       <r>   36.5540    0.0000 </r>
       <r>   40.2565    0.0000 </r>
      </set>
      <set comment="kpoint 74">
       <r>    5.7892    1.0000 </r>
       <r>    6.8182    1.0000 </r>
       <r>    8.0523    1.0000 </r>
       <r>    9.9357    1.0000 </r>
       <r>   11.2553    1.0000 </r>
       <r>   16.4190    0.0000 </r>
       <r>   20.9736    0.0000 </r>
       <r>   21.9495    0.0000 </r>
       <r>   29.0176    0.0000 </r>
       <r>   31.0804    0.0000 </r>
       <r>   38.7383    0.0000 </r>
       <r>   39.6006    0.0000 </r>
      </set>
      <set comment="kpoint 75">
       <r>    5.7892    1.0000 </r>
       <r>    6.8182    1.0000 </r>
       <r>    8.0523    1.0000 </r>
       <r>    9.9357    1.0000 </r>
       <r>   11.2553    1.0000 </r>
       <r>   16.4190    0.0000 </r>
       <r>   20.9736    0.0000 </r>
       <r>   21.9495    0.0000 </r>
       <r>   29.0176    0.0000 </r>
       <r>   31.0804    0.0000 </r>
       <r>   38.7383    0.0000 </r>
       <r>   39.6006    0.0000 </r>
      </set>
      <set comment="kpoint 76">
       <r>    5.7892    1.0000 </r>
       <r>    6.8182    1.0000 </r>
       <r>    8.0523    1.0000 </r>
       <r>    9.9357    1.0000 </r>
       <r>   11.2553    1.0000 </r>
       <r>   16.4190    0.0000 </r>
       <r>   20.9736    0.0000 </r>
       <r>   21.9495    0.0000 </r>
       <r>   29.0176    0.0000 </r>
       <r>   31.0804    0.0000 </r>
       <r>   38.7383    0.0000 </r>
       <r>   39.6006    0.0000 </r>
      </set>
      <set comment="kpoint 77">
       <r>    5.7892    1.0000 </r>
       <r>    6.8181    1.0000 </r>
       <r>    8.0524    1.0000 </r>
       <r>    9.9358    1.0000 </r>
       <r>   11.2553    1.0000 </r>
       <r>   16.4189    0.0000 </r>
       <r>   20.9736    0.0000 </r>
       <r>   21.9494    0.0000 </r>
       <r>   29.0177    0.0000 </r>
       <r>   31.0805    0.0000 </r>
       <r>   38.7383    0.0000 </r>
       <r>   39.6007    0.0000 </r>
      </set>
      <set comment="kpoint 78">
       <r>    5.7892    1.0000 </r>
       <r>    6.8181    1.0000 </r>
       <r>    8.0524    1.0000 </r>
       <r>    9.9358    1.0000 </r>
       <r>   11.2553    1.0000 </r>
       <r>   16.4189    0.0000 </r>
       <r>   20.9736    0.0000 </r>
       <r>   21.9494    0.0000 </r>
       <r>   29.0177    0.0000 </r>
       <r>   31.0805    0.0000 </r>
       <r>   38.7383    0.0000 </r>
       <r>   39.6007    0.0000 </r>
      </set>
      <set comment="kpoint 79">
       <r>    5.7892    1.0000 </r>
       <r>    6.8181    1.0000 </r>
       <r>    8.0524    1.0000 </r>
       <r>    9.9358    1.0000 </r>
       <r>   11.2553    1.0000 </r>
       <r>   16.4189    0.0000 </r>
       <r>   20.9736    0.0000 </r>
       <r>   21.9494    0.0000 </r>
       <r>   29.0177    0.0000 </r>
       <r>   31.0805    0.0000 </r>
       <r>   38.7383    0.0000 </r>
       <r>   39.6007    0.0000 </r>
      </set>
      <set comment="kpoint 80">
       <r>    4.5248    1.0000 </r>
       <r>    4.9911    1.0000 </r>
       <r>   11.9376    0.8675 </r>
       <r>   12.4497    0.0000 </r>
       <r>   12.4497    0.0000 </r>
       <r>   13.7079    0.0000 </r>
       <r>   21.2202    0.0000 </r>
       <r>   23.4808    0.0000 </r>
       <r>   23.4810    0.0000 </r>
       <r>   32.5024    0.0000 </r>
       <r>   35.8973    0.0000 </r>
       <r>   40.7385    0.0000 </r>
      </set>
      <set comment="kpoint 81">
       <r>    4.5248    1.0000 </r>
       <r>    4.9911    1.0000 </r>
       <r>   11.9376    0.8675 </r>
       <r>   12.4497    0.0000 </r>
       <r>   12.4497    0.0000 </r>
       <r>   13.7079    0.0000 </r>
       <r>   21.2202    0.0000 </r>
       <r>   23.4808    0.0000 </r>
       <r>   23.4810    0.0000 </r>
       <r>   32.5024    0.0000 </r>
       <r>   35.8973    0.0000 </r>
       <r>   40.7385    0.0000 </r>
      </set>
      <set comment="kpoint 82">
       <r>    4.5248    1.0000 </r>
       <r>    4.9911    1.0000 </r>
       <r>   11.9376    0.8675 </r>
       <r>   12.4497    0.0000 </r>
       <r>   12.4497    0.0000 </r>
       <r>   13.7079    0.0000 </r>
       <r>   21.2202    0.0000 </r>
       <r>   23.4808    0.0000 </r>
       <r>   23.4810    0.0000 </r>
       <r>   32.5024    0.0000 </r>
       <r>   35.8973    0.0000 </r>
       <r>   40.7385    0.0000 </r>
      </set>
      <set comment="kpoint 83">
       <r>    5.9722    1.0000 </r>
       <r>    6.3648    1.0000 </r>
       <r>    7.3866    1.0000 </r>
       <r>   10.2721    1.0000 </r>
       <r>   10.8388    1.0000 </r>
       <r>   14.0151    0.0000 </r>
       <r>   22.8917    0.0000 </r>
       <r>   25.0140    0.0000 </r>
       <r>   27.9857    0.0000 </r>
       <r>   34.4497    0.0000 </r>
       <r>   34.6692    0.0000 </r>
       <r>   40.9576    0.0000 </r>
      </set>
      <set comment="kpoint 84">
       <r>    5.9722    1.0000 </r>
       <r>    6.3648    1.0000 </r>
       <r>    7.3866    1.0000 </r>
       <r>   10.2721    1.0000 </r>
       <r>   10.8388    1.0000 </r>
       <r>   14.0151    0.0000 </r>
       <r>   22.8917    0.0000 </r>
       <r>   25.0140    0.0000 </r>
       <r>   27.9857    0.0000 </r>
       <r>   34.4497    0.0000 </r>
       <r>   34.6692    0.0000 </r>
       <r>   40.9576    0.0000 </r>
      </set>
      <set comment="kpoint 85">
       <r>    5.9722    1.0000 </r>
       <r>    6.3648    1.0000 </r>
       <r>    7.3866    1.0000 </r>
       <r>   10.2721    1.0000 </r>
       <r>   10.8388    1.0000 </r>
       <r>   14.0151    0.0000 </r>
       <r>   22.8917    0.0000 </r>
       <r>   25.0140    0.0000 </r>
       <r>   27.9857    0.0000 </r>
       <r>   34.4497    0.0000 </r>
       <r>   34.6692    0.0000 </r>
       <r>   40.9576    0.0000 </r>
      </set>
      <set comment="kpoint 86">
       <r>    5.9723    1.0000 </r>
       <r>    6.3647    1.0000 </r>
       <r>    7.3867    1.0000 </r>
       <r>   10.2721    1.0000 </r>
       <r>   10.8388    1.0000 </r>
       <r>   14.0152    0.0000 </r>
       <r>   22.8917    0.0000 </r>
       <r>   25.0140    0.0000 </r>
       <r>   27.9857    0.0000 </r>
       <r>   34.4497    0.0000 </r>
       <r>   34.6691    0.0000 </r>
       <r>   40.9575    0.0000 </r>
      </set>
      <set comment="kpoint 87">
       <r>    5.9722    1.0000 </r>
       <r>    6.3648    1.0000 </r>
       <r>    7.3866    1.0000 </r>
       <r>   10.2721    1.0000 </r>
       <r>   10.8388    1.0000 </r>
       <r>   14.0151    0.0000 </r>
       <r>   22.8917    0.0000 </r>
       <r>   25.0140    0.0000 </r>
       <r>   27.9857    0.0000 </r>
       <r>   34.4497    0.0000 </r>
       <r>   34.6692    0.0000 </r>
       <r>   40.9576    0.0000 </r>
      </set>
      <set comment="kpoint 88">
       <r>    5.9723    1.0000 </r>
       <r>    6.3647    1.0000 </r>
       <r>    7.3867    1.0000 </r>
       <r>   10.2721    1.0000 </r>
       <r>   10.8388    1.0000 </r>
       <r>   14.0152    0.0000 </r>
       <r>   22.8917    0.0000 </r>
       <r>   25.0140    0.0000 </r>
       <r>   27.9857    0.0000 </r>
       <r>   34.4497    0.0000 </r>
       <r>   34.6691    0.0000 </r>
       <r>   40.9575    0.0000 </r>
      </set>
      <set comment="kpoint 89">
       <r>    5.9723    1.0000 </r>
       <r>    6.3647    1.0000 </r>
       <r>    7.3867    1.0000 </r>
       <r>   10.2721    1.0000 </r>
       <r>   10.8388    1.0000 </r>
       <r>   14.0152    0.0000 </r>
       <r>   22.8917    0.0000 </r>
       <r>   25.0140    0.0000 </r>
       <r>   27.9856    0.0000 </r>
       <r>   34.4497    0.0000 </r>
       <r>   34.6691    0.0000 </r>
       <r>   40.9575    0.0000 </r>
      </set>
      <set comment="kpoint 90">
       <r>    5.9723    1.0000 </r>
       <r>    6.3647    1.0000 </r>
       <r>    7.3867    1.0000 </r>
       <r>   10.2721    1.0000 </r>
       <r>   10.8388    1.0000 </r>
       <r>   14.0152    0.0000 </r>
       <r>   22.8917    0.0000 </r>
       <r>   25.0140    0.0000 </r>
       <r>   27.9857    0.0000 </r>
       <r>   34.4497    0.0000 </r>
       <r>   34.6691    0.0000 </r>
       <r>   40.9575    0.0000 </r>
      </set>
      <set comment="kpoint 91">
       <r>    5.9722    1.0000 </r>
       <r>    6.3648    1.0000 </r>
       <r>    7.3866    1.0000 </r>
       <r>   10.2721    1.0000 </r>
       <r>   10.8388    1.0000 </r>
       <r>   14.0151    0.0000 </r>
       <r>   22.8917    0.0000 </r>
       <r>   25.0140    0.0000 </r>
       <r>   27.9857    0.0000 </r>
       <r>   34.4497    0.0000 </r>
       <r>   34.6692    0.0000 </r>
       <r>   40.9576    0.0000 </r>
      </set>
      <set comment="kpoint 92">
       <r>    5.9723    1.0000 </r>
       <r>    6.3647    1.0000 </r>
       <r>    7.3867    1.0000 </r>
       <r>   10.2721    1.0000 </r>
       <r>   10.8388    1.0000 </r>
       <r>   14.0152    0.0000 </r>
       <r>   22.8917    0.0000 </r>
       <r>   25.0140    0.0000 </r>
       <r>   27.9857    0.0000 </r>
       <r>   34.4497    0.0000 </r>
       <r>   34.6691    0.0000 </r>
       <r>   40.9575    0.0000 </r>
      </set>
      <set comment="kpoint 93">
       <r>    5.9723    1.0000 </r>
       <r>    6.3647    1.0000 </r>
       <r>    7.3867    1.0000 </r>
       <r>   10.2721    1.0000 </r>
       <r>   10.8388    1.0000 </r>
       <r>   14.0152    0.0000 </r>
       <r>   22.8917    0.0000 </r>
       <r>   25.0140    0.0000 </r>
       <r>   27.9857    0.0000 </r>
       <r>   34.4497    0.0000 </r>
       <r>   34.6691    0.0000 </r>
       <r>   40.9575    0.0000 </r>
      </set>
      <set comment="kpoint 94">
       <r>    5.9722    1.0000 </r>
       <r>    6.3648    1.0000 </r>
       <r>    7.3866    1.0000 </r>
       <r>   10.2721    1.0000 </r>
       <r>   10.8388    1.0000 </r>
       <r>   14.0151    0.0000 </r>
       <r>   22.8917    0.0000 </r>
       <r>   25.0140    0.0000 </r>
       <r>   27.9857    0.0000 </r>
       <r>   34.4497    0.0000 </r>
       <r>   34.6692    0.0000 </r>
       <r>   40.9576    0.0000 </r>
      </set>
      <set comment="kpoint 95">
       <r>    6.3328    1.0000 </r>
       <r>    6.4140    1.0000 </r>
       <r>    7.6751    1.0000 </r>
       <r>    9.7057    1.0000 </r>
       <r>   11.7847    1.0000 </r>
       <r>   17.7893    0.0000 </r>
       <r>   18.1484    0.0000 </r>
       <r>   24.5510    0.0000 </r>
       <r>   26.2643    0.0000 </r>
       <r>   33.0366    0.0000 </r>
       <r>   37.5274    0.0000 </r>
       <r>   42.3972    0.0000 </r>
      </set>
      <set comment="kpoint 96">
       <r>    6.3329    1.0000 </r>
       <r>    6.4140    1.0000 </r>
       <r>    7.6752    1.0000 </r>
       <r>    9.7057    1.0000 </r>
       <r>   11.7847    1.0000 </r>
       <r>   17.7893    0.0000 </r>
       <r>   18.1484    0.0000 </r>
       <r>   24.5510    0.0000 </r>
       <r>   26.2642    0.0000 </r>
       <r>   33.0366    0.0000 </r>
       <r>   37.5274    0.0000 </r>
       <r>   42.3972    0.0000 </r>
      </set>
      <set comment="kpoint 97">
       <r>    6.3328    1.0000 </r>
       <r>    6.4140    1.0000 </r>
       <r>    7.6752    1.0000 </r>
       <r>    9.7057    1.0000 </r>
       <r>   11.7847    1.0000 </r>
       <r>   17.7893    0.0000 </r>
       <r>   18.1484    0.0000 </r>
       <r>   24.5510    0.0000 </r>
       <r>   26.2642    0.0000 </r>
       <r>   33.0366    0.0000 </r>
       <r>   37.5274    0.0000 </r>
       <r>   42.3972    0.0000 </r>
      </set>
      <set comment="kpoint 98">
       <r>    6.3329    1.0000 </r>
       <r>    6.4140    1.0000 </r>
       <r>    7.6751    1.0000 </r>
       <r>    9.7057    1.0000 </r>
       <r>   11.7847    1.0000 </r>
       <r>   17.7892    0.0000 </r>
       <r>   18.1484    0.0000 </r>
       <r>   24.5511    0.0000 </r>
       <r>   26.2643    0.0000 </r>
       <r>   33.0367    0.0000 </r>
       <r>   37.5274    0.0000 </r>
       <r>   42.3974    0.0000 </r>
      </set>
      <set comment="kpoint 99">
       <r>    6.3329    1.0000 </r>
       <r>    6.4140    1.0000 </r>
       <r>    7.6751    1.0000 </r>
       <r>    9.7057    1.0000 </r>
       <r>   11.7847    1.0000 </r>
       <r>   17.7893    0.0000 </r>
       <r>   18.1485    0.0000 </r>
       <r>   24.5511    0.0000 </r>
       <r>   26.2642    0.0000 </r>
       <r>   33.0366    0.0000 </r>
       <r>   37.5274    0.0000 </r>
       <r>   42.3972    0.0000 </r>
      </set>
      <set comment="kpoint 100">
       <r>    6.3328    1.0000 </r>
       <r>    6.4140    1.0000 </r>
       <r>    7.6751    1.0000 </r>
       <r>    9.7057    1.0000 </r>
       <r>   11.7847    1.0000 </r>
       <r>   17.7893    0.0000 </r>
       <r>   18.1484    0.0000 </r>
       <r>   24.5510    0.0000 </r>
       <r>   26.2643    0.0000 </r>
       <r>   33.0366    0.0000 </r>
       <r>   37.5274    0.0000 </r>
       <r>   42.3973    0.0000 </r>
      </set>
[...]
       </set>
       <set comment="band 5">
        <r>  0.0121  0.0019  0.0007  0.0002  0.0698  0.0021  0.0845  0.2477  0.5535 </r>
       </set>
       <set comment="band 6">
        <r>  0.5278  0.0458  0.0172  0.0057  0.0481  0.0094  0.0423  0.1769  0.0040 </r>
       </set>
       <set comment="band 7">
        <r>  0.0000  0.0345  0.3239  0.2121  0.0374  0.0815  0.1945  0.0056  0.0293 </r>
       </set>
       <set comment="band 8">
        <r>  0.1057  0.3611  0.1354  0.0451  0.0002  0.1749  0.0838  0.0121  0.0003 </r>
       </set>
       <set comment="band 9">
        <r>  0.0000  0.0650  0.0140  0.2661  0.2200  0.0284  0.0095  0.0794  0.0940 </r>
       </set>
       <set comment="band 10">
        <r>  0.0000  0.0650  0.0568  0.0951  0.0030  0.0114  0.0498  0.0209  0.0441 </r>
       </set>
       <set comment="band 11">
        <r>  0.0021  0.0095  0.0036  0.0012  0.2023  0.0027  0.1026  0.1023  0.0696 </r>
       </set>
       <set comment="band 12">
        <r>  0.0000  0.0035  0.0000  0.0300  0.0724  0.0000  0.0169  0.0627  0.0987 </r>
       </set>
      </set>
      <set comment="kpoint 102">
       <set comment="band 1">
        <r>  0.0916  0.0615  0.0000  0.0307  0.0001  0.2280  0.0715  0.4559  0.0000 </r>
       </set>
       <set comment="band 2">
        <r>  0.0000  0.0201  0.0018  0.0402  0.0077  0.5104  0.0000  0.2552  0.0619 </r>
       </set>
       <set comment="band 3">
        <r>  0.0000  0.0095  0.1436  0.0190  0.0815  0.0180  0.0000  0.0090  0.6519 </r>
       </set>
       <set comment="band 4">
        <r>  0.0105  0.0191  0.0000  0.0095  0.7808  0.0006  0.0273  0.0013  0.0976 </r>
       </set>
       <set comment="band 5">
        <r>  0.0121  0.0019  0.0000  0.0009  0.0295  0.0424  0.7971  0.0849  0.0037 </r>
       </set>
       <set comment="band 6">
        <r>  0.5278  0.0458  0.0000  0.0229  0.0007  0.0569  0.1093  0.1138  0.0001 </r>
       </set>
       <set comment="band 7">
        <r>  0.0000  0.0345  0.4671  0.0690  0.0226  0.0962  0.0000  0.0481  0.1812 </r>
       </set>
       <set comment="band 8">
        <r>  0.1057  0.3611  0.0000  0.1806  0.1362  0.0389  0.0013  0.0778  0.0170 </r>
       </set>
       <set comment="band 9">
        <r>  0.0000  0.0650  0.1502  0.1299  0.0078  0.2406  0.0000  0.1203  0.0627 </r>
       </set>
       <set comment="band 10">
        <r>  0.0000  0.0650  0.0219  0.1301  0.0143  0.0000  0.0000  0.0000  0.1147 </r>
       </set>
       <set comment="band 11">
        <r>  0.0021  0.0095  0.0000  0.0047  0.0727  0.1323  0.0008  0.2647  0.0091 </r>
       </set>
       <set comment="band 12">
        <r>  0.0000  0.0037  0.0228  0.0070  0.0191  0.0534  0.0000  0.0267  0.1518 </r>
       </set>
      </set>
      <set comment="kpoint 103">
       <set comment="band 1">
        <r>  0.0916  0.0000  0.0230  0.0692  0.0007  0.0020  0.2939  0.0777  0.3812 </r>
       </set>
       <set comment="band 2">
        <r>  0.0000  0.0310  0.0233  0.0078  0.2369  0.0790  0.2922  0.1298  0.0973 </r>
       </set>
       <set comment="band 3">
        <r>  0.0000  0.1655  0.0049  0.0016  0.2965  0.0988  0.2054  0.0913  0.0685 </r>
       </set>
       <set comment="band 4">
        <r>  0.0105  0.0000  0.0072  0.0215  0.0874  0.2622  0.0387  0.3810  0.1383 </r>
       </set>
       <set comment="band 5">
        <r>  0.0121  0.0000  0.0007  0.0021  0.1452  0.4356  0.0214  0.2502  0.1051 </r>
       </set>
       <set comment="band 6">
        <r>  0.5278  0.0000  0.0172  0.0515  0.0053  0.0158  0.0901  0.0112  0.1584 </r>
       </set>
       <set comment="band 7">
        <r>  0.0000  0.5531  0.0131  0.0044  0.2444  0.0815  0.0125  0.0056  0.0042 </r>
       </set>
       <set comment="band 8">
        <r>  0.1057  0.0000  0.1354  0.4062  0.0181  0.0543  0.0166  0.0231  0.1590 </r>
       </set>
       <set comment="band 9">
        <r>  0.0000  0.0038  0.2559  0.0853  0.0853  0.0284  0.1787  0.0794  0.0596 </r>
       </set>
       <set comment="band 10">
        <r>  0.0000  0.0180  0.1492  0.0497  0.0341  0.0114  0.0470  0.0209  0.0157 </r>
       </set>
       <set comment="band 11">
        <r>  0.0021  0.0000  0.0036  0.0107  0.0007  0.0020  0.2037  0.2084  0.0648 </r>
       </set>
       <set comment="band 12">
        <r>  0.0000  0.0042  0.0220  0.0075  0.0000  0.0000  0.1411  0.0628  0.0470 </r>
       </set>
      </set>
      <set comment="kpoint 104">
       <set comment="band 1">
        <r>  0.0916  0.0000  0.0230  0.0691  0.0623  0.1869  0.2215  0.1572  0.1276 </r>
       </set>
       <set comment="band 2">
        <r>  0.0000  0.0116  0.0379  0.0126  0.5635  0.1878  0.0472  0.0210  0.0157 </r>
       </set>
       <set comment="band 3">
        <r>  0.0000  0.0450  0.0953  0.0318  0.0973  0.0324  0.3548  0.1577  0.1183 </r>
       </set>
       <set comment="band 4">
        <r>  0.0105  0.0000  0.0072  0.0215  0.0790  0.2369  0.0627  0.4264  0.1026 </r>
       </set>
       <set comment="band 5">
        <r>  0.0121  0.0000  0.0007  0.0021  0.0687  0.2061  0.0845  0.0437  0.5546 </r>
       </set>
       <set comment="band 6">
        <r>  0.5278  0.0000  0.0172  0.0515  0.0442  0.1326  0.0423  0.0537  0.0079 </r>
       </set>
       <set comment="band 7">
        <r>  0.0000  0.1386  0.3239  0.1080  0.0018  0.0006  0.1945  0.0864  0.0648 </r>
       </set>
       <set comment="band 8">
        <r>  0.1057  0.0000  0.1354  0.4063  0.0004  0.0013  0.0838  0.1857  0.0000 </r>
       </set>
       <set comment="band 9">
        <r>  0.0000  0.3263  0.0140  0.0047  0.3108  0.1036  0.0095  0.0042  0.0032 </r>
       </set>
       <set comment="band 10">
        <r>  0.0000  0.1412  0.0568  0.0189  0.0305  0.0102  0.0498  0.0221  0.0166 </r>
       </set>
       <set comment="band 11">
        <r>  0.0021  0.0000  0.0036  0.0107  0.0339  0.1016  0.1026  0.0034  0.2381 </r>
       </set>
       <set comment="band 12">
        <r>  0.0000  0.0335  0.0000  0.0000  0.1655  0.0552  0.0170  0.0076  0.0057 </r>
       </set>
      </set>
      <set comment="kpoint 105">
       <set comment="band 1">
        <r>  0.0916  0.0615  0.0230  0.0077  0.1667  0.0614  0.2940  0.0183  0.2151 </r>
       </set>
       <set comment="band 2">
        <r>  0.0000  0.0201  0.0233  0.0187  0.3303  0.1878  0.2921  0.0210  0.0040 </r>
       </set>
       <set comment="band 3">
        <r>  0.0000  0.0095  0.0049  0.1577  0.0671  0.0324  0.2054  0.1577  0.2978 </r>
       </set>
       <set comment="band 4">
        <r>  0.0105  0.0191  0.0072  0.0024  0.2150  0.5664  0.0387  0.0767  0.0107 </r>
       </set>
       <set comment="band 5">
        <r>  0.0121  0.0019  0.0007  0.0002  0.0086  0.0633  0.0214  0.6225  0.2418 </r>
       </set>
       <set comment="band 6">
        <r>  0.5278  0.0458  0.0172  0.0057  0.0375  0.0200  0.0901  0.0069  0.1261 </r>
       </set>
       <set comment="band 7">
        <r>  0.0000  0.0345  0.0131  0.5230  0.1183  0.0006  0.0125  0.0864  0.1303 </r>
       </set>
       <set comment="band 8">
        <r>  0.1057  0.3611  0.1354  0.0451  0.1262  0.0488  0.0166  0.0286  0.0509 </r>
       </set>
       <set comment="band 9">
        <r>  0.0000  0.0650  0.2559  0.0241  0.1448  0.1036  0.1787  0.0042  0.0000 </r>
       </set>
       <set comment="band 10">
        <r>  0.0000  0.0650  0.1492  0.0027  0.0042  0.0102  0.0470  0.0221  0.0456 </r>
       </set>
       <set comment="band 11">
        <r>  0.0021  0.0095  0.0036  0.0012  0.0325  0.1725  0.2037  0.0379  0.0330 </r>
       </set>
       <set comment="band 12">
        <r>  0.0000  0.0035  0.0219  0.0079  0.0173  0.0552  0.1410  0.0075  0.0297 </r>
       </set>
      </set>
      <set comment="kpoint 106">
       <set comment="band 1">
        <r>  0.0916  0.0615  0.0230  0.0077  0.1753  0.0528  0.2214  0.2913  0.0146 </r>
       </set>
       <set comment="band 2">
        <r>  0.0000  0.0201  0.0379  0.0041  0.4391  0.0790  0.0472  0.1299  0.1401 </r>
       </set>
       <set comment="band 3">
        <r>  0.0000  0.0095  0.0953  0.0673  0.0007  0.0988  0.3548  0.0913  0.2148 </r>
       </set>
       <set comment="band 4">
        <r>  0.0105  0.0191  0.0072  0.0024  0.1763  0.6051  0.0627  0.0582  0.0053 </r>
       </set>
       <set comment="band 5">
        <r>  0.0121  0.0019  0.0007  0.0002  0.0698  0.0021  0.0845  0.2477  0.5535 </r>
       </set>
       <set comment="band 6">
        <r>  0.5278  0.0458  0.0172  0.0057  0.0481  0.0094  0.0424  0.1769  0.0040 </r>
       </set>
       <set comment="band 7">
        <r>  0.0000  0.0345  0.3239  0.2121  0.0374  0.0815  0.1944  0.0056  0.0293 </r>
       </set>
       <set comment="band 8">
        <r>  0.1057  0.3611  0.1354  0.0451  0.0002  0.1749  0.0838  0.0121  0.0003 </r>
       </set>
       <set comment="band 9">
        <r>  0.0000  0.0650  0.0140  0.2661  0.2200  0.0284  0.0095  0.0794  0.0940 </r>
       </set>
       <set comment="band 10">
        <r>  0.0000  0.0650  0.0569  0.0951  0.0030  0.0114  0.0498  0.0209  0.0441 </r>
       </set>
       <set comment="band 11">
        <r>  0.0021  0.0095  0.0036  0.0012  0.2023  0.0027  0.1026  0.1023  0.0696 </r>
       </set>
       <set comment="band 12">
        <r>  0.0000  0.0034  0.0000  0.0301  0.0725  0.0000  0.0169  0.0626  0.0986 </r>
       </set>
      </set>
      <set comment="kpoint 107">
       <set comment="band 1">
        <r>  0.0360  0.0160  0.0239  0.0080  0.5206  0.0164  0.1952  0.0082  0.0651 </r>
       </set>
       <set comment="band 2">
        <r>  0.0000  0.0199  0.0298  0.0099  0.1988  0.0000  0.6708  0.0000  0.0248 </r>
       </set>
       <set comment="band 3">
        <r>  0.0000  0.0649  0.0000  0.1298  0.0411  0.1234  0.0000  0.2469  0.3292 </r>
       </set>
       <set comment="band 4">
        <r>  0.0346  0.0050  0.0074  0.0025  0.0166  0.5804  0.0062  0.2902  0.0021 </r>
       </set>
       <set comment="band 5">
        <r>  0.0000  0.0000  0.0000  0.0000  0.0549  0.1648  0.0000  0.3297  0.4396 </r>
       </set>
       <set comment="band 6">
        <r>  0.0000  0.2124  0.0000  0.4249  0.0170  0.0511  0.0000  0.1022  0.1362 </r>
       </set>
       <set comment="band 7">
        <r>  0.6540  0.0078  0.0117  0.0039  0.0545  0.0472  0.0204  0.0236  0.0068 </r>
       </set>
       <set comment="band 8">
        <r>  0.0000  0.2291  0.3437  0.1146  0.0350  0.0000  0.1182  0.0000  0.0044 </r>
       </set>
       <set comment="band 9">
        <r>  0.0068  0.1281  0.1921  0.0640  0.2610  0.0590  0.0979  0.0295  0.0326 </r>
       </set>
       <set comment="band 10">
        <r>  0.0000  0.0006  0.0009  0.0003  0.1707  0.0000  0.5761  0.0000  0.0213 </r>
       </set>
       <set comment="band 11">
        <r>  0.1353  0.0775  0.1162  0.0387  0.1240  0.0098  0.0465  0.0049  0.0155 </r>
       </set>
       <set comment="band 12">
        <r>  0.0000  0.0022  0.0000  0.0044  0.0133  0.0400  0.0000  0.0800  0.1067 </r>
       </set>
      </set>
      <set comment="kpoint 108">
       <set comment="band 1">
        <r>  0.0360  0.0160  0.0000  0.0319  0.0625  0.4745  0.0234  0.2372  0.0078 </r>
       </set>
       <set comment="band 2">
        <r>  0.0000  0.0199  0.0298  0.0099  0.0497  0.1491  0.0000  0.2981  0.3975 </r>
       </set>
       <set comment="band 3">
        <r>  0.0000  0.0649  0.0973  0.0324  0.0411  0.1234  0.0000  0.2469  0.3292 </r>
       </set>
       <set comment="band 4">
        <r>  0.0346  0.0050  0.0000  0.0099  0.5246  0.0725  0.1967  0.0362  0.0656 </r>
       </set>
       <set comment="band 5">
        <r>  0.0000  0.0000  0.0000  0.0000  0.2198  0.0000  0.7418  0.0000  0.0275 </r>
       </set>
       <set comment="band 6">
        <r>  0.0000  0.2124  0.3186  0.1062  0.0170  0.0511  0.0000  0.1022  0.1362 </r>
       </set>
       <set comment="band 7">
        <r>  0.6540  0.0078  0.0000  0.0156  0.0929  0.0087  0.0348  0.0044  0.0116 </r>
       </set>
       <set comment="band 8">
        <r>  0.0000  0.2291  0.3437  0.1146  0.0088  0.0263  0.0000  0.0525  0.0700 </r>
       </set>
       <set comment="band 9">
        <r>  0.0068  0.1281  0.0000  0.2561  0.0020  0.3180  0.0008  0.1590  0.0003 </r>
       </set>
       <set comment="band 10">
        <r>  0.0000  0.0006  0.0009  0.0003  0.0427  0.1280  0.0000  0.2561  0.3414 </r>
       </set>
       <set comment="band 11">
        <r>  0.1353  0.0775  0.0000  0.1549  0.0685  0.0653  0.0257  0.0326  0.0085 </r>
       </set>
       <set comment="band 12">
        <r>  0.0000  0.0022  0.0033  0.0011  0.0133  0.0400  0.0000  0.0800  0.1067 </r>
       </set>
      </set>
      <set comment="kpoint 109">
       <set comment="band 1">
        <r>  0.0360  0.0160  0.0239  0.0080  0.2223  0.3146  0.0834  0.1573  0.0278 </r>
       </set>
       <set comment="band 2">
        <r>  0.0000  0.0199  0.0000  0.0397  0.0497  0.1491  0.0000  0.2981  0.3975 </r>
       </set>
       <set comment="band 3">
        <r>  0.0000  0.0649  0.0973  0.0324  0.1646  0.0000  0.5555  0.0000  0.0206 </r>
       </set>
       <set comment="band 4">
        <r>  0.0346  0.0050  0.0074  0.0025  0.3543  0.2427  0.1329  0.1214  0.0443 </r>
       </set>
       <set comment="band 5">
        <r>  0.0000  0.0000  0.0000  0.0000  0.0549  0.1648  0.0000  0.3297  0.4396 </r>
       </set>
       <set comment="band 6">
        <r>  0.0000  0.2124  0.3187  0.1062  0.0681  0.0000  0.2299  0.0000  0.0085 </r>
       </set>
       <set comment="band 7">
        <r>  0.6540  0.0078  0.0117  0.0039  0.0051  0.0965  0.0019  0.0483  0.0006 </r>
       </set>
       <set comment="band 8">
        <r>  0.0000  0.2292  0.0000  0.4583  0.0088  0.0263  0.0000  0.0525  0.0700 </r>
       </set>
       <set comment="band 9">
        <r>  0.0068  0.1281  0.1921  0.0640  0.2170  0.1030  0.0814  0.0515  0.0271 </r>
       </set>
       <set comment="band 10">
        <r>  0.0000  0.0006  0.0000  0.0011  0.0427  0.1281  0.0000  0.2560  0.3414 </r>
       </set>
       <set comment="band 11">
        <r>  0.1354  0.0774  0.1161  0.0387  0.0082  0.1256  0.0031  0.0628  0.0010 </r>
       </set>
       <set comment="band 12">
        <r>  0.0000  0.0022  0.0033  0.0011  0.0533  0.0000  0.1800  0.0000  0.0067 </r>
       </set>
      </set>
      <set comment="kpoint 110">
       <set comment="band 1">
        <r>  0.0360  0.0160  0.0239  0.0080  0.5206  0.0164  0.1952  0.0082  0.0651 </r>
       </set>
       <set comment="band 2">
        <r>  0.0000  0.0199  0.0298  0.0099  0.1988  0.0000  0.6708  0.0000  0.0248 </r>
       </set>
       <set comment="band 3">
        <r>  0.0000  0.0649  0.0000  0.1298  0.0411  0.1234  0.0000  0.2469  0.3292 </r>
       </set>
       <set comment="band 4">
        <r>  0.0346  0.0050  0.0074  0.0025  0.0166  0.5804  0.0062  0.2902  0.0021 </r>
       </set>
       <set comment="band 5">
        <r>  0.0000  0.0000  0.0000  0.0000  0.0549  0.1648  0.0000  0.3297  0.4396 </r>
       </set>
       <set comment="band 6">
        <r>  0.0000  0.2124  0.0000  0.4249  0.0170  0.0511  0.0000  0.1022  0.1362 </r>
       </set>
       <set comment="band 7">
        <r>  0.6540  0.0078  0.0117  0.0039  0.0545  0.0472  0.0204  0.0236  0.0068 </r>
       </set>
       <set comment="band 8">
        <r>  0.0000  0.2292  0.3437  0.1146  0.0350  0.0000  0.1182  0.0000  0.0044 </r>
       </set>
       <set comment="band 9">
        <r>  0.0068  0.1281  0.1921  0.0640  0.2610  0.0590  0.0979  0.0295  0.0326 </r>
       </set>
       <set comment="band 10">
        <r>  0.0000  0.0006  0.0009  0.0003  0.1707  0.0000  0.5761  0.0000  0.0213 </r>
       </set>
       <set comment="band 11">
        <r>  0.1353  0.0774  0.1162  0.0387  0.1240  0.0098  0.0465  0.0049  0.0155 </r>
       </set>
       <set comment="band 12">
        <r>  0.0000  0.0022  0.0000  0.0044  0.0133  0.0400  0.0000  0.0800  0.1067 </r>
       </set>
      </set>
      <set comment="kpoint 111">
       <set comment="band 1">
        <r>  0.0360  0.0160  0.0000  0.0319  0.0625  0.4745  0.0234  0.2372  0.0078 </r>
       </set>
       <set comment="band 2">
        <r>  0.0000  0.0199  0.0298  0.0099  0.0497  0.1491  0.0000  0.2981  0.3975 </r>
       </set>
       <set comment="band 3">
        <r>  0.0000  0.0649  0.0973  0.0324  0.0411  0.1234  0.0000  0.2469  0.3292 </r>
       </set>
       <set comment="band 4">
        <r>  0.0346  0.0050  0.0000  0.0099  0.5246  0.0725  0.1967  0.0362  0.0656 </r>
       </set>
       <set comment="band 5">
        <r>  0.0000  0.0000  0.0000  0.0000  0.2198  0.0000  0.7418  0.0000  0.0275 </r>
       </set>
       <set comment="band 6">
        <r>  0.0000  0.2124  0.3186  0.1062  0.0170  0.0511  0.0000  0.1022  0.1362 </r>
       </set>
       <set comment="band 7">
        <r>  0.6540  0.0078  0.0000  0.0156  0.0929  0.0087  0.0348  0.0044  0.0116 </r>
       </set>
       <set comment="band 8">
        <r>  0.0000  0.2292  0.3437  0.1146  0.0088  0.0263  0.0000  0.0525  0.0700 </r>
       </set>
       <set comment="band 9">
        <r>  0.0068  0.1281  0.0000  0.2561  0.0020  0.3180  0.0008  0.1590  0.0003 </r>
       </set>
       <set comment="band 10">
        <r>  0.0000  0.0006  0.0009  0.0003  0.0427  0.1280  0.0000  0.2560  0.3414 </r>
       </set>
       <set comment="band 11">
        <r>  0.1353  0.0774  0.0000  0.1549  0.0684  0.0653  0.0257  0.0327  0.0086 </r>
       </set>
       <set comment="band 12">
        <r>  0.0000  0.0022  0.0033  0.0011  0.0133  0.0400  0.0000  0.0800  0.1067 </r>
       </set>
      </set>
      <set comment="kpoint 112">
       <set comment="band 1">
        <r>  0.0360  0.0160  0.0239  0.0080  0.2224  0.3146  0.0834  0.1573  0.0278 </r>
       </set>
       <set comment="band 2">
        <r>  0.0000  0.0199  0.0000  0.0397  0.0497  0.1491  0.0000  0.2981  0.3975 </r>
       </set>
       <set comment="band 3">
        <r>  0.0000  0.0649  0.0973  0.0324  0.1646  0.0000  0.5555  0.0000  0.0206 </r>
       </set>
       <set comment="band 4">
        <r>  0.0346  0.0050  0.0074  0.0025  0.3543  0.2427  0.1329  0.1213  0.0443 </r>
       </set>
       <set comment="band 5">
        <r>  0.0000  0.0000  0.0000  0.0000  0.0549  0.1648  0.0000  0.3297  0.4396 </r>
       </set>
       <set comment="band 6">
        <r>  0.0000  0.2124  0.3187  0.1062  0.0681  0.0000  0.2299  0.0000  0.0085 </r>
       </set>
       <set comment="band 7">
        <r>  0.6540  0.0078  0.0117  0.0039  0.0051  0.0965  0.0019  0.0483  0.0006 </r>
       </set>
       <set comment="band 8">
        <r>  0.0000  0.2291  0.0000  0.4583  0.0088  0.0263  0.0000  0.0525  0.0700 </r>
       </set>
       <set comment="band 9">
        <r>  0.0068  0.1281  0.1921  0.0640  0.2170  0.1030  0.0814  0.0515  0.0271 </r>
       </set>
       <set comment="band 10">
        <r>  0.0000  0.0006  0.0000  0.0011  0.0427  0.1280  0.0000  0.2561  0.3414 </r>
       </set>
       <set comment="band 11">
        <r>  0.1353  0.0775  0.1162  0.0387  0.0082  0.1256  0.0031  0.0628  0.0010 </r>
       </set>
       <set comment="band 12">
        <r>  0.0000  0.0022  0.0033  0.0011  0.0533  0.0000  0.1800  0.0000  0.0067 </r>
       </set>
      </set>
     </set>
    </set>
   </array>
  </projected>
 </calculation>
 <structure name="finalpos" >
  <crystal>
   <varray name="basis" >
    <v>       2.37642500       0.00000500       1.37204300 </v>
    <v>       0.79214700       2.24051200       1.37204300 </v>
    <v>       0.00000600       0.00000500       2.74406500 </v>
   </varray>
   <i name="volume">     14.61048346 </i>
   <varray name="rec_basis" >
    <v>       0.42080084      -0.14877637      -0.00000065 </v>
    <v>      -0.00000047       0.44632722      -0.00000081 </v>
    <v>      -0.21040180      -0.14877656       0.36442359 </v>
   </varray>
  </crystal>
  <varray name="positions" >
   <v>       0.00000000       0.00000000       0.00000000 </v>
  </varray>
 </structure>
</modeling>
