 running on   16 total cores
 distrk:  each k-point on   16 cores,    1 groups
 distr:  one band on    4 cores,    4 groups
 vasp.6.2.0 18Jan21 (build Feb  1 2022 01:28:57) complex                         
 POSCAR found type information on POSCAR Pt
 POSCAR found :  1 types and       1 ions
 scaLAPACK will be used
 -----------------------------------------------------------------------------
|                                                                             |
|               ----> ADVICE to this user running VASP <----                  |
|                                                                             |
|     You enforced a specific xc type in the INCAR file but a different       |
|     type was found in the POTCAR file.                                      |
|     I HOPE YOU KNOW WHAT YOU ARE DOING!                                     |
|                                                                             |
 -----------------------------------------------------------------------------

 LDA part: xc-table for Pade appr. of Perdew
 -----------------------------------------------------------------------------
|                                                                             |
|           W    W    AA    RRRRR   N    N  II  N    N   GGGG   !!!           |
|           W    W   A  A   R    R  NN   N  II  NN   N  G    G  !!!           |
|           W    W  A    A  R    R  N N  N  II  N N  N  G       !!!           |
|           W WW W  AAAAAA  RRRRR   N  N N  II  N  N N  G  GGG   !            |
|           WW  WW  A    A  R   R   N   NN  II  N   NN  G    G                |
|           W    W  A    A  R    R  N    N  II  N    N   GGGG   !!!           |
|                                                                             |
|     The requested file  could not be found or opened for reading            |
|     k-point information. Automatic k-point generation is used as a          |
|     fallback, which may lead to unwanted results.                           |
|                                                                             |
 -----------------------------------------------------------------------------

 POSCAR, INCAR and KPOINTS ok, starting setup
 FFT: planning ...
 WAVECAR not read
 entering main loop
       N       E                     dE             d eps       ncg     rms          rms(c)
DAV:   1     0.349109099124E+02    0.34911E+02   -0.46584E+03  2840   0.643E+02
DAV:   2    -0.531002604059E+01   -0.40221E+02   -0.38227E+02  3256   0.156E+02
DAV:   3    -0.582788376621E+01   -0.51786E+00   -0.51700E+00  3340   0.162E+01
DAV:   4    -0.582992503083E+01   -0.20413E-02   -0.20411E-02  3328   0.120E+00
DAV:   5    -0.582994068081E+01   -0.15650E-04   -0.15651E-04  3400   0.952E-02    0.136E+01
DAV:   6    -0.553422651043E+01    0.29571E+00   -0.54648E-01  3028   0.579E+00    0.729E+00
DAV:   7    -0.548957229348E+01    0.44654E-01   -0.15635E-01  3236   0.306E+00    0.232E+00
DAV:   8    -0.548636885517E+01    0.32034E-02   -0.70022E-03  2928   0.680E-01    0.609E-01
DAV:   9    -0.548613190357E+01    0.23695E-03   -0.13964E-04  3060   0.979E-02    0.573E-02
DAV:  10    -0.548613534996E+01   -0.34464E-05   -0.54201E-06  1452   0.186E-02
   1 F= -.54861353E+01 E0= -.54851537E+01  d E =-.196323E-02
