<?xml version="1.0" encoding="ISO-8859-1"?>
<modeling>
 <generator>
  <i name="program" type="string">vasp </i>
  <i name="version" type="string">6.2.0  </i>
  <i name="subversion" type="string">18Jan21 (build Feb  1 2022 01:28:57) complex                          parallel </i>
  <i name="platform" type="string">LinuxPGI </i>
  <i name="date" type="string">2022 05 17 </i>
  <i name="time" type="string">00:45:20 </i>
 </generator>
 <incar>
  <i type="string" name="PREC">Normal</i>
  <i type="string" name="ALGO">38</i>
  <i type="int" name="ISPIN">     1</i>
  <i name="AMIX">      0.20000000</i>
  <i name="BMIX">      0.00100000</i>
  <i name="AMIN">      0.01000000</i>
  <i type="int" name="NELM">    80</i>
  <i type="int" name="NELMIN">     4</i>
  <i type="int" name="IBRION">     2</i>
  <i name="EDIFF">      0.00010000</i>
  <i name="EDIFFG">     -0.03000000</i>
  <i type="int" name="NSW">   300</i>
  <i type="int" name="ISIF">     0</i>
  <i type="int" name="ISYM">     0</i>
  <i name="SYMPREC">      0.00001000</i>
  <i name="ENCUT">    420.00000000</i>
  <i type="logical" name="LREAL"> T  </i>
  <i type="int" name="ISMEAR">     0</i>
  <i name="SIGMA">      0.05000000</i>
  <i type="logical" name="LWAVE"> F  </i>
  <i type="logical" name="LVTOT"> F  </i>
  <i type="int" name="LORBIT">    11</i>
  <i type="logical" name="LASPH"> F  </i>
  <i type="string" name="GGA">RP</i>
 </incar>
 <primitive_cell>
  <structure name="primitive_cell" >
   <crystal>
    <varray name="basis" >
     <v>       5.63719400       0.00000000      -0.00000000 </v>
     <v>      -2.81859700       4.88195300       0.00000000 </v>
     <v>       0.00000000       0.00000000      34.52062200 </v>
    </varray>
    <i name="volume">    950.02533560 </i>
    <varray name="rec_basis" >
     <v>       0.17739322       0.10241803      -0.00000000 </v>
     <v>      -0.00000000       0.20483606       0.00000000 </v>
     <v>       0.00000000       0.00000000       0.02896819 </v>
    </varray>
   </crystal>
   <varray name="positions" >
    <v>       0.33333300       0.16666700       0.43333300 </v>
    <v>       0.33333300       0.66666700       0.43333300 </v>
    <v>       0.83333300       0.16666700       0.43333300 </v>
    <v>       0.83333300       0.66666700       0.43333300 </v>
    <v>       0.50000000       0.00000000       0.50000000 </v>
    <v>       0.50000000       0.50000000       0.50000000 </v>
    <v>       0.00000000       0.00000000       0.50000000 </v>
    <v>       0.00000000       0.50000000       0.50000000 </v>
    <v>       0.16666700       0.33333300       0.56666700 </v>
    <v>       0.16666700       0.83333300       0.56666700 </v>
    <v>       0.66666700       0.33333300       0.56666700 </v>
    <v>       0.66666700       0.83333300       0.56666700 </v>
   </varray>
  </structure>
  <varray name="primitive_index" >
   <v type="int" >        1 </v>
   <v type="int" >        2 </v>
   <v type="int" >        3 </v>
   <v type="int" >        4 </v>
   <v type="int" >        5 </v>
   <v type="int" >        6 </v>
   <v type="int" >        7 </v>
   <v type="int" >        8 </v>
   <v type="int" >        9 </v>
   <v type="int" >       10 </v>
   <v type="int" >       11 </v>
   <v type="int" >       12 </v>
  </varray>
 </primitive_cell>
 <kpoints>
  <generation param="Gamma">
   <v type="int" name="divisions">       2        2        1 </v>
   <v name="usershift">      0.00000000       0.00000000       0.00000000 </v>
   <v name="genvec1">      0.50000000       0.00000000       0.00000000 </v>
   <v name="genvec2">      0.00000000       0.50000000       0.00000000 </v>
   <v name="genvec3">      0.00000000       0.00000000       1.00000000 </v>
   <v name="shift">      0.00000000       0.00000000       0.00000000 </v>
  </generation>
  <varray name="kpointlist" >
   <v>       0.00000000       0.00000000       0.00000000 </v>
   <v>       0.50000000       0.00000000       0.00000000 </v>
   <v>       0.00000000       0.50000000       0.00000000 </v>
   <v>       0.50000000       0.50000000       0.00000000 </v>
  </varray>
  <varray name="weights" >
   <v>       0.25000000 </v>
   <v>       0.25000000 </v>
   <v>       0.25000000 </v>
   <v>       0.25000000 </v>
  </varray>
 </kpoints>
 <parameters>
  <separator name="general" >
   <i type="string" name="SYSTEM">unknown system</i>
   <i type="logical" name="LCOMPAT"> F  </i>
  </separator>
  <separator name="electronic" >
   <i type="string" name="PREC">normal</i>
   <i name="ENMAX">    420.00000000</i>
   <i name="ENAUG">    358.96600000</i>
   <i name="EDIFF">      0.00010000</i>
   <i type="int" name="IALGO">    38</i>
   <i type="int" name="IWAVPR">    11</i>
   <i type="int" name="NBANDS">    72</i>
   <i type="int" name="NBANDSLOW">    -1</i>
   <i type="int" name="NBANDSHIGH">    -1</i>
   <i name="NELECT">    120.00000000</i>
   <i type="int" name="TURBO">     0</i>
   <i type="int" name="IRESTART">     0</i>
   <i type="int" name="NREBOOT">     0</i>
   <i type="int" name="NMIN">     0</i>
   <i name="EREF">      0.00000000</i>
   <separator name="electronic smearing" >
    <i type="int" name="ISMEAR">     0</i>
    <i name="SIGMA">      0.05000000</i>
    <i name="KSPACING">      0.50000000</i>
    <i type="logical" name="KGAMMA"> T  </i>
    <i type="logical" name="KBLOWUP"> T  </i>
   </separator>
   <separator name="electronic projectors" >
    <i type="logical" name="LREAL"> T  </i>
    <v name="ROPT">      0.00000000</v>
    <i type="int" name="LMAXPAW">  -100</i>
    <i type="int" name="LMAXMIX">     2</i>
    <i type="logical" name="NLSPLINE"> F  </i>
   </separator>
   <separator name="electronic startup" >
    <i type="int" name="ISTART">     0</i>
    <i type="int" name="ICHARG">     2</i>
    <i type="int" name="INIWAV">     1</i>
   </separator>
   <separator name="electronic spin" >
    <i type="int" name="ISPIN">     1</i>
    <i type="logical" name="LNONCOLLINEAR"> F  </i>
    <v name="MAGMOM">      1.00000000      1.00000000      1.00000000      1.00000000      1.00000000      1.00000000      1.00000000      1.00000000      1.00000000      1.00000000      1.00000000      1.00000000</v>
    <i name="NUPDOWN">     -1.00000000</i>
    <i type="logical" name="LSORBIT"> F  </i>
    <v name="SAXIS">      0.00000000      0.00000000      1.00000000</v>
    <i type="logical" name="LSPIRAL"> F  </i>
    <v name="QSPIRAL">      0.00000000      0.00000000      0.00000000</v>
    <i type="logical" name="LZEROZ"> F  </i>
   </separator>
   <separator name="electronic exchange-correlation" >
    <i type="logical" name="LASPH"> F  </i>
    <i type="logical" name="LMETAGGA"> F  </i>
   </separator>
   <separator name="electronic convergence" >
    <i type="int" name="NELM">    80</i>
    <i type="int" name="NELMDL">    -5</i>
    <i type="int" name="NELMIN">     4</i>
    <i name="ENINI">    420.00000000</i>
    <separator name="electronic convergence detail" >
     <i type="logical" name="LDIAG"> T  </i>
     <i type="logical" name="LSUBROT"> F  </i>
     <i name="WEIMIN">      0.00100000</i>
     <i name="EBREAK">      0.00000035</i>
     <i name="DEPER">      0.30000000</i>
     <i type="int" name="NRMM">     4</i>
     <i name="TIME">      0.40000000</i>
    </separator>
   </separator>
   <separator name="electronic mixer" >
    <i name="AMIX">      0.20000000</i>
    <i name="BMIX">      0.00100000</i>
    <i name="AMIN">      0.01000000</i>
    <i name="AMIX_MAG">      0.80000000</i>
    <i name="BMIX_MAG">      0.00100000</i>
    <separator name="electronic mixer details" >
     <i type="int" name="IMIX">     4</i>
     <i type="logical" name="MIXFIRST"> F  </i>
     <i type="int" name="MAXMIX">   -45</i>
     <i name="WC">    100.00000000</i>
     <i type="int" name="INIMIX">     1</i>
     <i type="int" name="MIXPRE">     1</i>
     <i type="int" name="MREMOVE">     5</i>
    </separator>
   </separator>
   <separator name="electronic dipolcorrection" >
    <i type="logical" name="LDIPOL"> F  </i>
    <i type="logical" name="LMONO"> F  </i>
    <i type="int" name="IDIPOL">     0</i>
    <i name="EPSILON">      1.00000000</i>
    <v name="DIPOL">   -100.00000000   -100.00000000   -100.00000000</v>
    <i name="EFIELD">      0.00000000</i>
   </separator>
  </separator>
  <separator name="grids" >
   <i type="int" name="NGX">    28</i>
   <i type="int" name="NGY">    28</i>
   <i type="int" name="NGZ">   180</i>
   <i type="int" name="NGXF">    56</i>
   <i type="int" name="NGYF">    56</i>
   <i type="int" name="NGZF">   360</i>
   <i type="logical" name="ADDGRID"> F  </i>
  </separator>
  <separator name="ionic" >
   <i type="int" name="NSW">   300</i>
   <i type="int" name="IBRION">     2</i>
   <i type="int" name="MDALGO">     0</i>
   <i type="int" name="ISIF">     0</i>
   <i name="PSTRESS">      0.00000000</i>
   <i name="EDIFFG">     -0.03000000</i>
   <i type="int" name="NFREE">     1</i>
   <i name="POTIM">      0.50000000</i>
   <i name="SMASS">     -3.00000000</i>
   <i name="SCALEE">      1.00000000</i>
  </separator>
  <separator name="ionic md" >
   <i name="TEBEG">      0.00010000</i>
   <i name="TEEND">      0.00010000</i>
   <i type="int" name="NBLOCK">     1</i>
   <i type="int" name="KBLOCK">   300</i>
   <i type="int" name="NPACO">   256</i>
   <i name="APACO">     16.00000000</i>
  </separator>
  <separator name="symmetry" >
   <i type="int" name="ISYM">     0</i>
   <i name="SYMPREC">      0.00001000</i>
  </separator>
  <separator name="dos" >
   <i type="int" name="LORBIT">    11</i>
   <v name="RWIGS">     -1.00000000</v>
   <i type="int" name="NEDOS">   301</i>
   <i name="EMIN">     10.00000000</i>
   <i name="EMAX">    -10.00000000</i>
   <i name="EFERMI">      0.00000000</i>
  </separator>
  <separator name="writing" >
   <i type="int" name="NWRITE">     2</i>
   <i type="logical" name="LWAVE"> F  </i>
   <i type="logical" name="LDOWNSAMPLE"> F  </i>
   <i type="logical" name="LCHARG"> T  </i>
   <i type="logical" name="LPARD"> F  </i>
   <i type="logical" name="LVTOT"> F  </i>
   <i type="logical" name="LVHAR"> F  </i>
   <i type="logical" name="LELF"> F  </i>
   <i type="logical" name="LOPTICS"> F  </i>
   <v name="STM">      0.00000000      0.00000000      0.00000000      0.00000000      0.00000000      0.00000000      0.00000000</v>
  </separator>
  <separator name="performance" >
   <i type="int" name="NPAR">     4</i>
   <i type="int" name="NSIM">     4</i>
   <i type="int" name="NBLK">    -1</i>
   <i type="logical" name="LPLANE"> T  </i>
   <i type="logical" name="LSCALAPACK"> T  </i>
   <i type="logical" name="LSCAAWARE"> F  </i>
   <i type="logical" name="LSCALU"> F  </i>
   <i type="logical" name="LASYNC"> F  </i>
   <i type="logical" name="LORBITALREAL"> F  </i>
  </separator>
  <separator name="miscellaneous" >
   <i type="int" name="IDIOT">     3</i>
   <i type="int" name="PHON_NSTRUCT">    -1</i>
   <i type="logical" name="LMUSIC"> F  </i>
   <v name="POMASS">    195.08000000</v>
   <v name="DARWINR">      0.00000000</v>
   <v name="DARWINV">      1.00000000</v>
   <i type="logical" name="LCORR"> T  </i>
  </separator>
  <i type="logical" name="GGA_COMPAT"> T  </i>
  <i type="logical" name="LBERRY"> F  </i>
  <i type="int" name="ICORELEVEL">     0</i>
  <i type="logical" name="LDAU"> F  </i>
  <i type="int" name="I_CONSTRAINED_M">     0</i>
  <separator name="electronic exchange-correlation" >
   <i type="string" name="GGA">RP</i>
   <i type="int" name="VOSKOWN">     0</i>
   <i type="logical" name="LHFCALC"> F  </i>
   <i type="string" name="PRECFOCK"></i>
   <i type="logical" name="LSYMGRAD"> F  </i>
   <i type="logical" name="LHFONE"> F  </i>
   <i type="logical" name="LRHFCALC"> F  </i>
   <i type="logical" name="LTHOMAS"> F  </i>
   <i type="logical" name="LMODELHF"> F  </i>
   <i type="logical" name="LFOCKACE"> F  </i>
   <i name="ENCUT4O">     -1.00000000</i>
   <i type="int" name="EXXOEP">     0</i>
   <i type="int" name="FOURORBIT">     0</i>
   <i name="AEXX">      0.00000000</i>
   <i name="HFALPHA">      0.00000000</i>
   <i name="MCALPHA">      0.00000000</i>
   <i name="ALDAX">      1.00000000</i>
   <i name="AGGAX">      1.00000000</i>
   <i name="ALDAC">      1.00000000</i>
   <i name="AGGAC">      1.00000000</i>
   <i type="int" name="NKREDX">     1</i>
   <i type="int" name="NKREDY">     1</i>
   <i type="int" name="NKREDZ">     1</i>
   <i type="logical" name="SHIFTRED"> F  </i>
   <i type="logical" name="ODDONLY"> F  </i>
   <i type="logical" name="EVENONLY"> F  </i>
   <i type="int" name="LMAXFOCK">     0</i>
   <i type="int" name="NMAXFOCKAE">     0</i>
   <i type="logical" name="LFOCKAEDFT"> F  </i>
   <i name="HFSCREEN">      0.00000000</i>
   <i name="HFSCREENC">      0.00000000</i>
   <i type="int" name="NBANDSGWLOW">     0</i>
  </separator>
  <separator name="vdW DFT" >
   <i type="logical" name="LUSE_VDW"> F  </i>
   <i name="Zab_VDW">     -0.84910000</i>
   <i name="PARAM1">      0.12340000</i>
   <i name="PARAM2">      1.00000000</i>
   <i name="PARAM3">      0.00000000</i>
  </separator>
  <separator name="model GW" >
   <i type="int" name="MODEL_GW">     0</i>
   <i name="MODEL_EPS0">     47.50126678</i>
   <i name="MODEL_ALPHA">      1.00000000</i>
  </separator>
  <separator name="linear response parameters" >
   <i type="logical" name="LEPSILON"> F  </i>
   <i type="logical" name="LRPA"> F  </i>
   <i type="logical" name="LNABLA"> F  </i>
   <i type="logical" name="LVEL"> F  </i>
   <i type="int" name="KINTER">     0</i>
   <i name="CSHIFT">      0.10000000</i>
   <i name="OMEGAMAX">     -1.00000000</i>
   <i name="DEG_THRESHOLD">      0.00200000</i>
   <i name="RTIME">     -0.10000000</i>
   <i name="WPLASMAI">      0.00000000</i>
   <v name="DFIELD">      0.00000000      0.00000000      0.00000000</v>
   <v name="WPLASMA">      0.00000000      0.00000000      0.00000000      0.00000000      0.00000000      0.00000000      0.00000000      0.00000000      0.00000000</v>
  </separator>
  <separator name="orbital magnetization" >
   <i type="logical" name="NUCIND"> F  </i>
   <v name="MAGPOS">      0.00000000      0.00000000      0.00000000</v>
   <i type="logical" name="LNICSALL"> T  </i>
   <i type="logical" name="ORBITALMAG"> F  </i>
   <i type="logical" name="LMAGBLOCH"> F  </i>
   <i type="logical" name="LCHIMAG"> F  </i>
   <i type="logical" name="LGAUGE"> T  </i>
   <i type="int" name="MAGATOM">     0</i>
   <v name="MAGDIPOL">      0.00000000      0.00000000      0.00000000</v>
   <v name="AVECCONST">      0.00000000      0.00000000      0.00000000</v>
  </separator>
  <separator name="response functions" >
   <i type="logical" name="LFINITE_TEMPERATURE"> F  </i>
   <i type="logical" name="LADDER"> F  </i>
   <i type="logical" name="LRPAFORCE"> F  </i>
   <i type="logical" name="LFXC"> F  </i>
   <i type="logical" name="LHARTREE"> T  </i>
   <i type="int" name="IBSE">     0</i>
   <v type="int" name="KPOINT">    -1     0     0     0</v>
   <i type="logical" name="LTCTC"> F  </i>
   <i type="logical" name="LTCTE"> F  </i>
   <i type="logical" name="LTETE"> F  </i>
   <i type="logical" name="LTRIPLET"> F  </i>
   <i type="logical" name="LFXCEPS"> F  </i>
   <i type="logical" name="LFXHEG"> F  </i>
   <i type="int" name="NATURALO">     2</i>
   <i type="logical" name="LHOLEGF"> F  </i>
   <i type="logical" name="L2ORDER"> F  </i>
   <i type="logical" name="LDMP1"> F  </i>
   <i type="logical" name="LMP2LT"> F  </i>
   <i type="logical" name="LSMP2LT"> F  </i>
   <i type="logical" name="LGWLF"> F  </i>
   <i name="ENCUTGW">     -2.00000000</i>
   <i name="ENCUTGWSOFT">     -2.00000000</i>
   <i name="ENCUTLF">     -1.00000000</i>
   <i type="logical" name="LESF_SPLINES"> F  </i>
   <i type="int" name="LMAXMP2">    -1</i>
   <i name="SCISSOR">      0.00000000</i>
   <i type="int" name="NOMEGA">     0</i>
   <i type="int" name="NOMEGAR">     0</i>
   <i type="int" name="NBANDSGW">    -1</i>
   <i type="int" name="NBANDSO">    -1</i>
   <i type="int" name="NBANDSV">    -1</i>
   <i type="int" name="NELM">    80</i>
   <i type="int" name="NELMHF">     1</i>
   <i type="int" name="DIM">     3</i>
   <i type="int" name="IESPILON">     4</i>
   <i type="int" name="ANTIRES">     0</i>
   <i name="OMEGAMAX">    -30.00000000</i>
   <i name="OMEGAMIN">    -30.00000000</i>
   <i name="OMEGATL">   -200.00000000</i>
   <i type="int" name="OMEGAGRID">     0</i>
   <i name="CSHIFT">     -0.10000000</i>
   <i type="logical" name="LSELFENERGY"> F  </i>
   <i type="logical" name="LSPECTRAL"> F  </i>
   <i type="logical" name="LSPECTRALGW"> F  </i>
   <i type="logical" name="LSINGLES"> F  </i>
   <i type="logical" name="LFERMIGW"> F  </i>
   <i type="logical" name="ODDONLYGW"> F  </i>
   <i type="logical" name="EVENONLYGW"> F  </i>
   <i type="int" name="NKREDLFX">     1</i>
   <i type="int" name="NKREDLFY">     1</i>
   <i type="int" name="NKREDLFZ">     1</i>
   <i type="int" name="MAXMEM">  2800</i>
   <i type="int" name="TELESCOPE">     0</i>
   <i type="int" name="NTAUPAR">    -1</i>
   <i type="int" name="NOMEGAPAR">    -1</i>
   <i name="DAMP_NEWTON">      0.80000001</i>
   <i name="LAMBDA">      1.00000000</i>
  </separator>
  <separator name="External order field" >
   <i name="OFIELD_KAPPA">      0.00000000</i>
   <v name="OFIELD_K">      0.00000000      0.00000000      0.00000000</v>
   <i name="OFIELD_Q6_NEAR">      0.00000000</i>
   <i name="OFIELD_Q6_FAR">      0.00000000</i>
   <i name="OFIELD_A">      0.00000000</i>
  </separator>
 </parameters>
 <atominfo>
  <atoms>      12 </atoms>
  <types>       1 </types>
  <array name="atoms" >
   <dimension dim="1">ion</dimension>
   <field type="string">element</field>
   <field type="int">atomtype</field>
   <set>
    <rc><c>Pt</c><c>   1</c></rc>
    <rc><c>Pt</c><c>   1</c></rc>
    <rc><c>Pt</c><c>   1</c></rc>
    <rc><c>Pt</c><c>   1</c></rc>
    <rc><c>Pt</c><c>   1</c></rc>
    <rc><c>Pt</c><c>   1</c></rc>
    <rc><c>Pt</c><c>   1</c></rc>
    <rc><c>Pt</c><c>   1</c></rc>
    <rc><c>Pt</c><c>   1</c></rc>
    <rc><c>Pt</c><c>   1</c></rc>
    <rc><c>Pt</c><c>   1</c></rc>
    <rc><c>Pt</c><c>   1</c></rc>
   </set>
  </array>
  <array name="atomtypes" >
   <dimension dim="1">type</dimension>
   <field type="int">atomspertype</field>
   <field type="string">element</field>
   <field>mass</field>
   <field>valence</field>
   <field type="string">pseudopotential</field>
   <set>
    <rc><c>  12</c><c>Pt</c><c>    195.08000000</c><c>     10.00000000</c><c>  PAW_PBE Pt 04Feb2005                  </c></rc>
   </set>
  </array>
 </atominfo>
 <structure name="initialpos" >
  <crystal>
   <varray name="basis" >
    <v>       5.63719400       0.00000000      -0.00000000 </v>
    <v>      -2.81859700       4.88195300       0.00000000 </v>
    <v>       0.00000000       0.00000000      34.52062200 </v>
   </varray>
   <i name="volume">    950.02533560 </i>
   <varray name="rec_basis" >
    <v>       0.17739322       0.10241803      -0.00000000 </v>
    <v>      -0.00000000       0.20483606       0.00000000 </v>
    <v>       0.00000000       0.00000000       0.02896819 </v>
   </varray>
  </crystal>
  <varray name="positions" >
   <v>       0.33333300       0.16666700       0.43333300 </v>
   <v>       0.33333300       0.66666700       0.43333300 </v>
   <v>       0.83333300       0.16666700       0.43333300 </v>
   <v>       0.83333300       0.66666700       0.43333300 </v>
   <v>       0.50000000       0.00000000       0.50000000 </v>
   <v>       0.50000000       0.50000000       0.50000000 </v>
   <v>       0.00000000       0.00000000       0.50000000 </v>
   <v>       0.00000000       0.50000000       0.50000000 </v>
   <v>       0.16666700       0.33333300       0.56666700 </v>
   <v>       0.16666700       0.83333300       0.56666700 </v>
   <v>       0.66666700       0.33333300       0.56666700 </v>
   <v>       0.66666700       0.83333300       0.56666700 </v>
  </varray>
  <varray name="selective"  type="logical" >
   <v type="logical" >  F  F  F </v>
   <v type="logical" >  F  F  F </v>
   <v type="logical" >  F  F  F </v>
   <v type="logical" >  F  F  F </v>
   <v type="logical" >  F  F  F </v>
   <v type="logical" >  F  F  F </v>
   <v type="logical" >  F  F  F </v>
   <v type="logical" >  F  F  F </v>
   <v type="logical" >  T  T  T </v>
   <v type="logical" >  T  T  T </v>
   <v type="logical" >  T  T  T </v>
   <v type="logical" >  T  T  T </v>
  </varray>
  <nose>
   <v>      -3.00000000       0.00000000       0.00010000       0.00010000 </v>
  </nose>
 </structure>
 <calculation>
  <scstep>
   <time name="dav">    1.25    1.25</time>
   <time name="total">    1.37    1.37</time>
   <energy>
    <i name="alphaZ">    144.08447791 </i>
    <i name="ewald">  79659.89247019 </i>
    <i name="hartreedc"> -88428.04108815 </i>
    <i name="XCdc">     34.59494261 </i>
    <i name="pawpsdc">   8360.47140508 </i>
    <i name="pawaedc">  -8009.49927615 </i>
    <i name="eentropy">     -0.00464737 </i>
    <i name="bandstr">    351.87182159 </i>
    <i name="atom">   8739.83051189 </i>
    <i name="e_fr_energy">    853.20061761 </i>
    <i name="e_wo_entrp">    853.20526497 </i>
    <i name="e_0_energy">    853.20294129 </i>
   </energy>
  </scstep>
  <scstep>
   <time name="dav">    1.65    1.65</time>
   <time name="total">    1.65    1.65</time>
   <energy>
    <i name="e_fr_energy">     28.86178141 </i>
    <i name="e_wo_entrp">     28.86652090 </i>
    <i name="e_0_energy">     28.86415116 </i>
   </energy>
  </scstep>
  <scstep>
   <time name="dav">    1.42    1.42</time>
   <time name="total">    1.42    1.42</time>
   <energy>
    <i name="e_fr_energy">    -63.05250331 </i>
    <i name="e_wo_entrp">    -63.03121191 </i>
    <i name="e_0_energy">    -63.04185761 </i>
   </energy>
  </scstep>
  <scstep>
   <time name="dav">    1.62    1.63</time>
   <time name="total">    1.63    1.63</time>
   <energy>
    <i name="e_fr_energy">    -66.74433932 </i>
    <i name="e_wo_entrp">    -66.72819636 </i>
    <i name="e_0_energy">    -66.73626784 </i>
   </energy>
  </scstep>
  <scstep>
   <time name="dav">    1.54    1.54</time>
   <time name="total">    1.63    1.64</time>
   <energy>
    <i name="e_fr_energy">    -66.86051726 </i>
    <i name="e_wo_entrp">    -66.84489220 </i>
    <i name="e_0_energy">    -66.85270473 </i>
   </energy>
  </scstep>
  <scstep>
   <time name="dav">    1.44    1.46</time>
   <time name="total">    1.64    1.66</time>
   <energy>
    <i name="e_fr_energy">    -64.62085654 </i>
    <i name="e_wo_entrp">    -64.56429039 </i>
    <i name="e_0_energy">    -64.59257346 </i>
   </energy>
  </scstep>
  <scstep>
   <time name="dav">    1.33    1.35</time>
   <time name="total">    1.53    1.55</time>
   <energy>
    <i name="e_fr_energy">    -70.53242679 </i>
    <i name="e_wo_entrp">    -70.49716485 </i>
    <i name="e_0_energy">    -70.51479582 </i>
   </energy>
  </scstep>
  <scstep>
   <time name="dav">    1.34    1.36</time>
   <time name="total">    1.54    1.56</time>
   <energy>
    <i name="e_fr_energy">    -63.45685394 </i>
    <i name="e_wo_entrp">    -63.38310391 </i>
    <i name="e_0_energy">    -63.41997892 </i>
   </energy>
  </scstep>
  <scstep>
   <time name="dav">    1.45    1.45</time>
   <time name="total">    1.66    1.66</time>
   <energy>
    <i name="e_fr_energy">    -64.62479118 </i>
    <i name="e_wo_entrp">    -64.56156123 </i>
    <i name="e_0_energy">    -64.59317620 </i>
   </energy>
  </scstep>
  <scstep>
   <time name="dav">    1.52    1.52</time>
   <time name="total">    1.73    1.73</time>
   <energy>
    <i name="e_fr_energy">    -64.19856385 </i>
    <i name="e_wo_entrp">    -64.13387811 </i>
    <i name="e_0_energy">    -64.16622098 </i>
   </energy>
  </scstep>
  <scstep>
   <time name="dav">    1.35    1.35</time>
   <time name="total">    1.54    1.55</time>
   <energy>
    <i name="e_fr_energy">    -63.22538478 </i>
    <i name="e_wo_entrp">    -63.22447432 </i>
    <i name="e_0_energy">    -63.22492955 </i>
   </energy>
  </scstep>
  <scstep>
   <time name="dav">    1.37    1.37</time>
   <time name="total">    1.56    1.57</time>
   <energy>
    <i name="e_fr_energy">    -63.17325884 </i>
    <i name="e_wo_entrp">    -63.17071475 </i>
    <i name="e_0_energy">    -63.17198679 </i>
   </energy>
  </scstep>
  <scstep>
   <time name="dav">    1.37    1.37</time>
   <time name="total">    1.56    1.57</time>
   <energy>
    <i name="e_fr_energy">    -62.99080341 </i>
    <i name="e_wo_entrp">    -62.95585635 </i>
    <i name="e_0_energy">    -62.97332988 </i>
   </energy>
  </scstep>
  <scstep>
   <time name="dav">    1.41    1.41</time>
   <time name="total">    1.61    1.61</time>
   <energy>
    <i name="e_fr_energy">    -62.98646217 </i>
    <i name="e_wo_entrp">    -62.92889169 </i>
    <i name="e_0_energy">    -62.95767693 </i>
   </energy>
  </scstep>
  <scstep>
   <time name="dav">    1.33    1.34</time>
   <time name="total">    1.53    1.55</time>
   <energy>
    <i name="e_fr_energy">    -62.97672231 </i>
    <i name="e_wo_entrp">    -62.92426713 </i>
    <i name="e_0_energy">    -62.95049472 </i>
   </energy>
  </scstep>
  <scstep>
   <time name="dav">    1.39    1.41</time>
   <time name="total">    1.60    1.62</time>
   <energy>
    <i name="e_fr_energy">    -62.96855871 </i>
    <i name="e_wo_entrp">    -62.92484912 </i>
    <i name="e_0_energy">    -62.94670392 </i>
   </energy>
  </scstep>
  <scstep>
   <time name="dav">    1.34    1.36</time>
   <time name="total">    1.54    1.56</time>
   <energy>
    <i name="e_fr_energy">    -62.95914879 </i>
    <i name="e_wo_entrp">    -62.91009072 </i>
    <i name="e_0_energy">    -62.93461976 </i>
   </energy>
  </scstep>
  <scstep>
   <time name="dav">    1.34    1.36</time>
   <time name="total">    1.55    1.57</time>
   <energy>
    <i name="e_fr_energy">    -62.95664342 </i>
    <i name="e_wo_entrp">    -62.90477568 </i>
    <i name="e_0_energy">    -62.93070955 </i>
   </energy>
  </scstep>
  <scstep>
   <time name="dav">    1.22    1.23</time>
   <time name="total">    1.42    1.44</time>
   <energy>
    <i name="e_fr_energy">    -62.95511691 </i>
    <i name="e_wo_entrp">    -62.90308954 </i>
    <i name="e_0_energy">    -62.92910323 </i>
   </energy>
  </scstep>
  <scstep>
   <time name="dav">    1.17    1.17</time>
   <time name="total">    1.37    1.38</time>
   <energy>
    <i name="e_fr_energy">    -62.95436551 </i>
    <i name="e_wo_entrp">    -62.90174073 </i>
    <i name="e_0_energy">    -62.92805312 </i>
   </energy>
  </scstep>
  <scstep>
   <time name="dav">    1.12    1.12</time>
   <time name="total">    1.32    1.33</time>
   <energy>
    <i name="e_fr_energy">    -62.95397272 </i>
    <i name="e_wo_entrp">    -62.90095215 </i>
    <i name="e_0_energy">    -62.92746244 </i>
   </energy>
  </scstep>
  <scstep>
   <time name="dav">    1.31    1.31</time>
   <time name="total">    1.52    1.52</time>
   <energy>
    <i name="e_fr_energy">    -62.95411048 </i>
    <i name="e_wo_entrp">    -62.90310198 </i>
    <i name="e_0_energy">    -62.92860623 </i>
   </energy>
  </scstep>
  <scstep>
   <time name="dav">    1.01    1.01</time>
   <time name="total">    1.12    1.12</time>
   <energy>
    <i name="alphaZ">    144.08447791 </i>
    <i name="ewald">  79659.89247019 </i>
    <i name="hartreedc"> -88302.02960397 </i>
    <i name="XCdc">     31.21967528 </i>
    <i name="pawpsdc">  10383.27819866 </i>
    <i name="pawaedc"> -10060.65887522 </i>
    <i name="eentropy">     -0.05280549 </i>
    <i name="bandstr">   -658.51809161 </i>
    <i name="atom">   8739.83051189 </i>
    <i name="e_fr_energy">    -62.95404237 </i>
    <i name="e_wo_entrp">    -62.90123688 </i>
    <i name="e_0_energy">    -62.92763963 </i>
   </energy>
  </scstep>
  <structure>
   <crystal>
    <varray name="basis" >
     <v>       5.63719400       0.00000000      -0.00000000 </v>
     <v>      -2.81859700       4.88195300       0.00000000 </v>
     <v>       0.00000000       0.00000000      34.52062200 </v>
    </varray>
    <i name="volume">    950.02533560 </i>
    <varray name="rec_basis" >
     <v>       0.17739322       0.10241803      -0.00000000 </v>
     <v>      -0.00000000       0.20483606       0.00000000 </v>
     <v>       0.00000000       0.00000000       0.02896819 </v>
    </varray>
   </crystal>
   <varray name="positions" >
    <v>       0.33333300       0.16666700       0.43333300 </v>
    <v>       0.33333300       0.66666700       0.43333300 </v>
    <v>       0.83333300       0.16666700       0.43333300 </v>
    <v>       0.83333300       0.66666700       0.43333300 </v>
    <v>       0.50000000       0.00000000       0.50000000 </v>
    <v>       0.50000000       0.50000000       0.50000000 </v>
    <v>       0.00000000       0.00000000       0.50000000 </v>
    <v>       0.00000000       0.50000000       0.50000000 </v>
    <v>       0.16666700       0.33333300       0.56666700 </v>
    <v>       0.16666700       0.83333300       0.56666700 </v>
    <v>       0.66666700       0.33333300       0.56666700 </v>
    <v>       0.66666700       0.83333300       0.56666700 </v>
   </varray>
  </structure>
  <varray name="forces" >
   <v>      -0.00011247       0.00003615      -0.67024885 </v>
   <v>       0.00010810      -0.00003907      -0.67415674 </v>
   <v>       0.00010872      -0.00009354      -0.67365481 </v>
   <v>      -0.00013722       0.00009423      -0.67236160 </v>
   <v>      -0.00011939       0.00005056      -0.00629081 </v>
   <v>       0.00022468      -0.00002568      -0.00619379 </v>
   <v>       0.00017835      -0.00017685      -0.00621586 </v>
   <v>      -0.00017388       0.00014816      -0.00634246 </v>
   <v>       0.00007478      -0.00007485       0.67989460 </v>
   <v>      -0.00012658       0.00006667       0.67890425 </v>
   <v>      -0.00010904       0.00005205       0.67952536 </v>
   <v>       0.00008394      -0.00003784       0.67714072 </v>
  </varray>
  <energy>
   <i name="e_fr_energy">    -62.95404237 </i>
   <i name="e_wo_entrp">    -62.90123688 </i>
   <i name="e_0_energy">    -62.92763963 </i>
  </energy>
  <time name="totalsc">   36.89   37.12</time>
 </calculation>
 <calculation>
  <scstep>
   <time name="dav">    1.24    1.24</time>
   <time name="total">    1.45    1.45</time>
   <energy>
    <i name="alphaZ">    144.08447791 </i>
    <i name="ewald">  79385.88360205 </i>
    <i name="hartreedc"> -88029.48988891 </i>
    <i name="XCdc">     30.96180525 </i>
    <i name="pawpsdc">  10383.88784423 </i>
    <i name="pawaedc"> -10061.26378784 </i>
    <i name="eentropy">     -0.03412319 </i>
    <i name="bandstr">   -656.84824212 </i>
    <i name="atom">   8739.83051189 </i>
    <i name="e_fr_energy">    -62.98780074 </i>
    <i name="e_wo_entrp">    -62.95367754 </i>
    <i name="e_0_energy">    -62.97073914 </i>
   </energy>
  </scstep>
  <scstep>
   <time name="dav">    1.33    1.33</time>
   <time name="total">    1.53    1.53</time>
   <energy>
    <i name="e_fr_energy">    -63.12099805 </i>
    <i name="e_wo_entrp">    -63.05806033 </i>
    <i name="e_0_energy">    -63.08952919 </i>
   </energy>
  </scstep>
  <scstep>
   <time name="dav">    1.44    1.45</time>
   <time name="total">    1.64    1.65</time>
   <energy>
    <i name="e_fr_energy">    -63.10758550 </i>
    <i name="e_wo_entrp">    -63.05823275 </i>
    <i name="e_0_energy">    -63.08290912 </i>
   </energy>
  </scstep>
  <scstep>
   <time name="dav">    1.41    1.41</time>
   <time name="total">    1.61    1.62</time>
   <energy>
    <i name="e_fr_energy">    -63.04121845 </i>
    <i name="e_wo_entrp">    -63.00926421 </i>
    <i name="e_0_energy">    -63.02524133 </i>
   </energy>
  </scstep>
  <scstep>
   <time name="dav">    1.38    1.38</time>
   <time name="total">    1.58    1.58</time>
   <energy>
    <i name="e_fr_energy">    -63.02418062 </i>
    <i name="e_wo_entrp">    -62.98944695 </i>
    <i name="e_0_energy">    -63.00681379 </i>
   </energy>
  </scstep>
  <scstep>
   <time name="dav">    1.31    1.31</time>
   <time name="total">    1.51    1.51</time>
   <energy>
    <i name="e_fr_energy">    -63.00718521 </i>
    <i name="e_wo_entrp">    -62.95665990 </i>
    <i name="e_0_energy">    -62.98192255 </i>
   </energy>
  </scstep>
  <scstep>
   <time name="dav">    1.37    1.38</time>
   <time name="total">    1.57    1.58</time>
   <energy>
    <i name="e_fr_energy">    -63.01070742 </i>
    <i name="e_wo_entrp">    -62.95922924 </i>
    <i name="e_0_energy">    -62.98496833 </i>
   </energy>
  </scstep>
  <scstep>
   <time name="dav">    1.32    1.33</time>
   <time name="total">    1.53    1.53</time>
   <energy>
    <i name="e_fr_energy">    -63.00851977 </i>
    <i name="e_wo_entrp">    -62.95902781 </i>
    <i name="e_0_energy">    -62.98377379 </i>
   </energy>
  </scstep>
  <scstep>
   <time name="dav">    1.32    1.32</time>
   <time name="total">    1.52    1.53</time>
   <energy>
    <i name="e_fr_energy">    -63.00664160 </i>
    <i name="e_wo_entrp">    -62.95938752 </i>
    <i name="e_0_energy">    -62.98301456 </i>
   </energy>
  </scstep>
  <scstep>
   <time name="dav">    1.31    1.32</time>
   <time name="total">    1.51    1.52</time>
   <energy>
    <i name="e_fr_energy">    -63.00647654 </i>
    <i name="e_wo_entrp">    -62.96002057 </i>
    <i name="e_0_energy">    -62.98324856 </i>
   </energy>
  </scstep>
  <scstep>
   <time name="dav">    0.82    0.82</time>
   <time name="total">    0.93    0.93</time>
   <energy>
    <i name="alphaZ">    144.08447791 </i>
    <i name="ewald">  79385.88360205 </i>
    <i name="hartreedc"> -88030.46543739 </i>
    <i name="XCdc">     30.96906643 </i>
    <i name="pawpsdc">  10338.69867314 </i>
    <i name="pawaedc"> -10015.78354571 </i>
    <i name="eentropy">     -0.04664432 </i>
    <i name="bandstr">   -656.17715312 </i>
    <i name="atom">   8739.83051189 </i>
    <i name="e_fr_energy">    -63.00644911 </i>
    <i name="e_wo_entrp">    -62.95980479 </i>
    <i name="e_0_energy">    -62.98312695 </i>
   </energy>
  </scstep>
  <structure>
   <crystal>
    <varray name="basis" >
     <v>       5.63719400       0.00000000       0.00000000 </v>
     <v>      -2.81859700       4.88195300       0.00000000 </v>
     <v>       0.00000000       0.00000000      34.52062200 </v>
    </varray>
    <i name="volume">    950.02533560 </i>
    <varray name="rec_basis" >
     <v>       0.17739322       0.10241803      -0.00000000 </v>
     <v>       0.00000000       0.20483606       0.00000000 </v>
     <v>       0.00000000      -0.00000000       0.02896819 </v>
    </varray>
   </crystal>
   <varray name="positions" >
    <v>       0.33333300       0.16666700       0.43333300 </v>
    <v>       0.33333300       0.66666700       0.43333300 </v>
    <v>       0.83333300       0.16666700       0.43333300 </v>
    <v>       0.83333300       0.66666700       0.43333300 </v>
    <v>       0.50000000       0.00000000       0.50000000 </v>
    <v>       0.50000000       0.50000000       0.50000000 </v>
    <v>       0.00000000       0.00000000       0.50000000 </v>
    <v>       0.00000000       0.50000000       0.50000000 </v>
    <v>       0.16666727       0.33333226       0.56761715 </v>
    <v>       0.16666625       0.83333366       0.56761577 </v>
    <v>       0.66666632       0.33333351       0.56761664 </v>
    <v>       0.66666753       0.83333263       0.56761331 </v>
   </varray>
  </structure>
  <varray name="forces" >
   <v>       0.00008873       0.00004058      -0.61548071 </v>
   <v>       0.00001892      -0.00001026      -0.61609897 </v>
   <v>      -0.00003023      -0.00001600      -0.61576740 </v>
   <v>      -0.00000501      -0.00009476      -0.61607646 </v>
   <v>      -0.00032558       0.00024346       0.31632432 </v>
   <v>       0.00005562      -0.00038598       0.31636338 </v>
   <v>       0.00033091       0.00018832       0.31638503 </v>
   <v>      -0.00003204      -0.00001794       0.31668970 </v>
   <v>      -0.00016820       0.00019873       0.29849513 </v>
   <v>       0.00017331      -0.00013002       0.29916646 </v>
   <v>       0.00009877      -0.00002423       0.29855277 </v>
   <v>      -0.00020521       0.00000810       0.30144675 </v>
  </varray>
  <energy>
   <i name="e_fr_energy">    -63.00644911 </i>
   <i name="e_wo_entrp">    -62.95980479 </i>
   <i name="e_0_energy">    -62.98312695 </i>
  </energy>
  <time name="totalsc">   17.22   17.28</time>
 </calculation>
 <calculation>
  <scstep>
   <time name="dav">    1.24    1.24</time>
   <time name="total">    1.44    1.44</time>
   <energy>
    <i name="alphaZ">    144.08447791 </i>
    <i name="ewald">  79170.06143559 </i>
    <i name="hartreedc"> -87815.67589617 </i>
    <i name="XCdc">     30.77410674 </i>
    <i name="pawpsdc">  10338.37720903 </i>
    <i name="pawaedc"> -10015.46108084 </i>
    <i name="eentropy">     -0.03393484 </i>
    <i name="bandstr">   -654.95096714 </i>
    <i name="atom">   8739.83051189 </i>
    <i name="e_fr_energy">    -62.99413785 </i>
    <i name="e_wo_entrp">    -62.96020301 </i>
    <i name="e_0_energy">    -62.97717043 </i>
   </energy>
  </scstep>
  <scstep>
   <time name="dav">    1.33    1.34</time>
   <time name="total">    1.54    1.54</time>
   <energy>
    <i name="e_fr_energy">    -63.06236891 </i>
    <i name="e_wo_entrp">    -62.99645192 </i>
    <i name="e_0_energy">    -63.02941041 </i>
   </energy>
  </scstep>
  <scstep>
   <time name="dav">    1.51    1.51</time>
   <time name="total">    1.71    1.71</time>
   <energy>
    <i name="e_fr_energy">    -63.03597294 </i>
    <i name="e_wo_entrp">    -63.00425864 </i>
    <i name="e_0_energy">    -63.02011579 </i>
   </energy>
  </scstep>
  <scstep>
   <time name="dav">    1.39    1.40</time>
   <time name="total">    1.60    1.60</time>
   <energy>
    <i name="e_fr_energy">    -63.02531045 </i>
    <i name="e_wo_entrp">    -62.99180762 </i>
    <i name="e_0_energy">    -63.00855904 </i>
   </energy>
  </scstep>
  <scstep>
   <time name="dav">    1.33    1.33</time>
   <time name="total">    1.53    1.54</time>
   <energy>
    <i name="e_fr_energy">    -63.01433698 </i>
    <i name="e_wo_entrp">    -62.98099137 </i>
    <i name="e_0_energy">    -62.99766417 </i>
   </energy>
  </scstep>
  <scstep>
   <time name="dav">    1.30    1.30</time>
   <time name="total">    1.50    1.50</time>
   <energy>
    <i name="e_fr_energy">    -63.00819729 </i>
    <i name="e_wo_entrp">    -62.95787842 </i>
    <i name="e_0_energy">    -62.98303785 </i>
   </energy>
  </scstep>
  <scstep>
   <time name="dav">    1.33    1.35</time>
   <time name="total">    1.53    1.55</time>
   <energy>
    <i name="e_fr_energy">    -63.00980218 </i>
    <i name="e_wo_entrp">    -62.96103877 </i>
    <i name="e_0_energy">    -62.98542048 </i>
   </energy>
  </scstep>
  <scstep>
   <time name="dav">    1.26    1.27</time>
   <time name="total">    1.46    1.47</time>
   <energy>
    <i name="e_fr_energy">    -63.00831029 </i>
    <i name="e_wo_entrp">    -62.96159701 </i>
    <i name="e_0_energy">    -62.98495365 </i>
   </energy>
  </scstep>
  <scstep>
   <time name="dav">    1.25    1.26</time>
   <time name="total">    1.46    1.47</time>
   <energy>
    <i name="e_fr_energy">    -63.00750114 </i>
    <i name="e_wo_entrp">    -62.96289442 </i>
    <i name="e_0_energy">    -62.98519778 </i>
   </energy>
  </scstep>
  <scstep>
   <time name="dav">    0.98    0.98</time>
   <time name="total">    1.08    1.09</time>
   <energy>
    <i name="alphaZ">    144.08447791 </i>
    <i name="ewald">  79170.06143559 </i>
    <i name="hartreedc"> -87816.22747138 </i>
    <i name="XCdc">     30.78543140 </i>
    <i name="pawpsdc">  10304.76922940 </i>
    <i name="pawaedc">  -9981.64053722 </i>
    <i name="eentropy">     -0.04457121 </i>
    <i name="bandstr">   -654.62598818 </i>
    <i name="atom">   8739.83051189 </i>
    <i name="e_fr_energy">    -63.00748180 </i>
    <i name="e_wo_entrp">    -62.96291059 </i>
    <i name="e_0_energy">    -62.98519619 </i>
   </energy>
  </scstep>
  <structure>
   <crystal>
    <varray name="basis" >
     <v>       5.63719400       0.00000000       0.00000000 </v>
     <v>      -2.81859700       4.88195300       0.00000000 </v>
     <v>       0.00000000       0.00000000      34.52062200 </v>
    </varray>
    <i name="volume">    950.02533560 </i>
    <varray name="rec_basis" >
     <v>       0.17739322       0.10241803      -0.00000000 </v>
     <v>       0.00000000       0.20483606       0.00000000 </v>
     <v>       0.00000000      -0.00000000       0.02896819 </v>
    </varray>
   </crystal>
   <varray name="positions" >
    <v>       0.33333300       0.16666700       0.43333300 </v>
    <v>       0.33333300       0.66666700       0.43333300 </v>
    <v>       0.83333300       0.16666700       0.43333300 </v>
    <v>       0.83333300       0.66666700       0.43333300 </v>
    <v>       0.50000000       0.00000000       0.50000000 </v>
    <v>       0.50000000       0.50000000       0.50000000 </v>
    <v>       0.00000000       0.00000000       0.50000000 </v>
    <v>       0.00000000       0.50000000       0.50000000 </v>
    <v>       0.16666748       0.33333168       0.56836689 </v>
    <v>       0.16666565       0.83333418       0.56836441 </v>
    <v>       0.66666579       0.33333392       0.56836596 </v>
    <v>       0.66666795       0.83333233       0.56836000 </v>
   </varray>
  </structure>
  <varray name="forces" >
   <v>       0.00020483      -0.00011460      -0.56184588 </v>
   <v>       0.00000692       0.00017288      -0.56140280 </v>
   <v>      -0.00011767      -0.00009092      -0.56195135 </v>
   <v>       0.00006707       0.00002471      -0.56087252 </v>
   <v>      -0.00016155       0.00012369       0.53487848 </v>
   <v>      -0.00009882      -0.00034597       0.53510320 </v>
   <v>       0.00013908       0.00021909       0.53506608 </v>
   <v>       0.00005455      -0.00014746       0.53532864 </v>
   <v>      -0.00027722       0.00030433       0.02513795 </v>
   <v>       0.00033010      -0.00018547       0.02673367 </v>
   <v>       0.00026144      -0.00011299       0.02589144 </v>
   <v>      -0.00040873       0.00015272       0.02793309 </v>
  </varray>
  <energy>
   <i name="e_fr_energy">    -63.00748180 </i>
   <i name="e_wo_entrp">    -62.96291059 </i>
   <i name="e_0_energy">    -62.98519619 </i>
  </energy>
  <time name="totalsc">   15.53   15.78</time>
  <eigenvalues>
   <array>
    <dimension dim="1">band</dimension>
    <dimension dim="2">kpoint</dimension>
    <dimension dim="3">spin</dimension>
    <field>eigene</field>
    <field>occ</field>
    <set>
     <set comment="spin 1">
      <set comment="kpoint 1">
       <r>  -11.2468    1.0000 </r>
       <r>   -9.6016    1.0000 </r>
       <r>   -9.0978    1.0000 </r>
       <r>   -8.6776    1.0000 </r>
       <r>   -8.6775    1.0000 </r>
       <r>   -8.6774    1.0000 </r>
       <r>   -8.4324    1.0000 </r>
       <r>   -8.4323    1.0000 </r>
       <r>   -8.4323    1.0000 </r>
       <r>   -7.9280    1.0000 </r>
       <r>   -7.9278    1.0000 </r>
       <r>   -7.9278    1.0000 </r>
       <r>   -7.8711    1.0000 </r>
       <r>   -7.8711    1.0000 </r>
       <r>   -7.8711    1.0000 </r>
       <r>   -6.3485    1.0000 </r>
       <r>   -6.3483    1.0000 </r>
       <r>   -6.3482    1.0000 </r>
       <r>   -6.0804    1.0000 </r>
       <r>   -6.0804    1.0000 </r>
       <r>   -6.0804    1.0000 </r>
       <r>   -5.9054    1.0000 </r>
       <r>   -5.8987    1.0000 </r>
       <r>   -5.8987    1.0000 </r>
       <r>   -5.5779    1.0000 </r>
       <r>   -5.5779    1.0000 </r>
       <r>   -5.3997    1.0000 </r>
       <r>   -5.3997    1.0000 </r>
       <r>   -5.3875    1.0000 </r>
       <r>   -5.2292    1.0000 </r>
       <r>   -5.2290    1.0000 </r>
       <r>   -5.2290    1.0000 </r>
       <r>   -4.6326    1.0000 </r>
       <r>   -4.6324    1.0000 </r>
       <r>   -4.6320    1.0000 </r>
       <r>   -3.8348    1.0000 </r>
       <r>   -3.8348    1.0000 </r>
       <r>   -3.7726    1.0000 </r>
       <r>   -3.7723    1.0000 </r>
       <r>   -3.7722    1.0000 </r>
       <r>   -3.7214    1.0000 </r>
       <r>   -3.7213    1.0000 </r>
       <r>   -3.7213    1.0000 </r>
       <r>   -3.1427    1.0000 </r>
       <r>   -3.1427    1.0000 </r>
       <r>   -3.0617    1.0000 </r>
       <r>   -2.7100    1.0000 </r>
       <r>   -2.7099    1.0000 </r>
       <r>   -2.7098    1.0000 </r>
       <r>   -2.6107    0.9997 </r>
       <r>   -2.6106    0.9997 </r>
       <r>   -2.6103    0.9996 </r>
       <r>   -2.5520    0.9586 </r>
       <r>   -2.5520    0.9586 </r>
       <r>   -2.4722    0.3003 </r>
       <r>   -2.4717    0.2962 </r>
       <r>   -2.4717    0.2957 </r>
       <r>   -2.1736    0.0000 </r>
       <r>   -2.1733    0.0000 </r>
       <r>   -2.1732    0.0000 </r>
       <r>   -2.1079    0.0000 </r>
       <r>   -2.1076    0.0000 </r>
       <r>   -2.1075    0.0000 </r>
       <r>   -1.5237    0.0000 </r>
       <r>   -1.3251    0.0000 </r>
       <r>   -1.3250    0.0000 </r>
       <r>   -1.3249    0.0000 </r>
       <r>    0.2084    0.0000 </r>
       <r>    0.2084    0.0000 </r>
       <r>    0.2087    0.0000 </r>
       <r>    0.2690    0.0000 </r>
       <r>    0.2691    0.0000 </r>
      </set>
      <set comment="kpoint 2">
       <r>   -9.4904    1.0000 </r>
       <r>   -9.4903    1.0000 </r>
       <r>   -8.1842    1.0000 </r>
       <r>   -8.1841    1.0000 </r>
       <r>   -7.7796    1.0000 </r>
       <r>   -7.7796    1.0000 </r>
       <r>   -7.6641    1.0000 </r>
       <r>   -7.6640    1.0000 </r>
       <r>   -7.5541    1.0000 </r>
       <r>   -7.5541    1.0000 </r>
       <r>   -7.1982    1.0000 </r>
       <r>   -7.1982    1.0000 </r>
       <r>   -6.9041    1.0000 </r>
       <r>   -6.9040    1.0000 </r>
       <r>   -6.8073    1.0000 </r>
       <r>   -6.8072    1.0000 </r>
       <r>   -6.4556    1.0000 </r>
       <r>   -6.4554    1.0000 </r>
       <r>   -6.3726    1.0000 </r>
       <r>   -6.3724    1.0000 </r>
       <r>   -6.3272    1.0000 </r>
       <r>   -6.3271    1.0000 </r>
       <r>   -5.8547    1.0000 </r>
       <r>   -5.8546    1.0000 </r>
       <r>   -5.5983    1.0000 </r>
       <r>   -5.5982    1.0000 </r>
       <r>   -5.5685    1.0000 </r>
       <r>   -5.5684    1.0000 </r>
       <r>   -5.3756    1.0000 </r>
       <r>   -5.3754    1.0000 </r>
       <r>   -5.2139    1.0000 </r>
       <r>   -5.2137    1.0000 </r>
       <r>   -5.2136    1.0000 </r>
       <r>   -5.2134    1.0000 </r>
       <r>   -5.1523    1.0000 </r>
       <r>   -5.1522    1.0000 </r>
       <r>   -4.9512    1.0000 </r>
       <r>   -4.9511    1.0000 </r>
       <r>   -4.9418    1.0000 </r>
       <r>   -4.9417    1.0000 </r>
       <r>   -4.5358    1.0000 </r>
       <r>   -4.5358    1.0000 </r>
       <r>   -4.2035    1.0000 </r>
       <r>   -4.2034    1.0000 </r>
       <r>   -4.1211    1.0000 </r>
       <r>   -4.1209    1.0000 </r>
       <r>   -4.0171    1.0000 </r>
       <r>   -4.0170    1.0000 </r>
       <r>   -3.9546    1.0000 </r>
       <r>   -3.9544    1.0000 </r>
       <r>   -3.8087    1.0000 </r>
       <r>   -3.8087    1.0000 </r>
       <r>   -3.2896    1.0000 </r>
       <r>   -3.2895    1.0000 </r>
       <r>   -3.2651    1.0000 </r>
       <r>   -3.2650    1.0000 </r>
       <r>   -3.0520    1.0000 </r>
       <r>   -3.0520    1.0000 </r>
       <r>   -2.6428    1.0000 </r>
       <r>   -2.6427    1.0000 </r>
       <r>   -2.5297    0.8654 </r>
       <r>   -2.5297    0.8651 </r>
       <r>   -2.3296    0.0000 </r>
       <r>   -2.3294    0.0000 </r>
       <r>   -0.8312    0.0000 </r>
       <r>   -0.8312    0.0000 </r>
       <r>   -0.5208    0.0000 </r>
       <r>   -0.5206    0.0000 </r>
       <r>    0.3286    0.0000 </r>
       <r>    0.3287    0.0000 </r>
       <r>    2.1451    0.0000 </r>
       <r>    2.1452    0.0000 </r>
      </set>
      <set comment="kpoint 3">
       <r>   -9.4904    1.0000 </r>
       <r>   -9.4903    1.0000 </r>
       <r>   -8.1842    1.0000 </r>
       <r>   -8.1841    1.0000 </r>
       <r>   -7.7796    1.0000 </r>
       <r>   -7.7796    1.0000 </r>
       <r>   -7.6641    1.0000 </r>
       <r>   -7.6639    1.0000 </r>
       <r>   -7.5541    1.0000 </r>
       <r>   -7.5541    1.0000 </r>
       <r>   -7.1983    1.0000 </r>
       <r>   -7.1981    1.0000 </r>
       <r>   -6.9042    1.0000 </r>
       <r>   -6.9039    1.0000 </r>
       <r>   -6.8074    1.0000 </r>
       <r>   -6.8071    1.0000 </r>
       <r>   -6.4556    1.0000 </r>
       <r>   -6.4553    1.0000 </r>
       <r>   -6.3726    1.0000 </r>
       <r>   -6.3724    1.0000 </r>
       <r>   -6.3273    1.0000 </r>
       <r>   -6.3270    1.0000 </r>
       <r>   -5.8547    1.0000 </r>
       <r>   -5.8546    1.0000 </r>
       <r>   -5.5984    1.0000 </r>
       <r>   -5.5981    1.0000 </r>
       <r>   -5.5685    1.0000 </r>
       <r>   -5.5684    1.0000 </r>
       <r>   -5.3756    1.0000 </r>
       <r>   -5.3753    1.0000 </r>
       <r>   -5.2139    1.0000 </r>
       <r>   -5.2137    1.0000 </r>
       <r>   -5.2136    1.0000 </r>
       <r>   -5.2134    1.0000 </r>
       <r>   -5.1523    1.0000 </r>
       <r>   -5.1521    1.0000 </r>
       <r>   -4.9513    1.0000 </r>
       <r>   -4.9510    1.0000 </r>
       <r>   -4.9418    1.0000 </r>
       <r>   -4.9416    1.0000 </r>
       <r>   -4.5358    1.0000 </r>
       <r>   -4.5357    1.0000 </r>
       <r>   -4.2035    1.0000 </r>
       <r>   -4.2033    1.0000 </r>
       <r>   -4.1212    1.0000 </r>
       <r>   -4.1208    1.0000 </r>
       <r>   -4.0171    1.0000 </r>
       <r>   -4.0169    1.0000 </r>
       <r>   -3.9547    1.0000 </r>
       <r>   -3.9544    1.0000 </r>
       <r>   -3.8088    1.0000 </r>
       <r>   -3.8086    1.0000 </r>
       <r>   -3.2896    1.0000 </r>
       <r>   -3.2894    1.0000 </r>
       <r>   -3.2652    1.0000 </r>
       <r>   -3.2649    1.0000 </r>
       <r>   -3.0520    1.0000 </r>
       <r>   -3.0519    1.0000 </r>
       <r>   -2.6429    1.0000 </r>
       <r>   -2.6425    1.0000 </r>
       <r>   -2.5298    0.8659 </r>
       <r>   -2.5296    0.8647 </r>
       <r>   -2.3296    0.0000 </r>
       <r>   -2.3294    0.0000 </r>
       <r>   -0.8313    0.0000 </r>
       <r>   -0.8312    0.0000 </r>
       <r>   -0.5209    0.0000 </r>
       <r>   -0.5206    0.0000 </r>
       <r>    0.3285    0.0000 </r>
       <r>    0.3288    0.0000 </r>
       <r>    2.1451    0.0000 </r>
       <r>    2.1452    0.0000 </r>
      </set>
      <set comment="kpoint 4">
       <r>   -9.4904    1.0000 </r>
       <r>   -9.4903    1.0000 </r>
       <r>   -8.1842    1.0000 </r>
       <r>   -8.1841    1.0000 </r>
       <r>   -7.7797    1.0000 </r>
       <r>   -7.7795    1.0000 </r>
       <r>   -7.6640    1.0000 </r>
       <r>   -7.6640    1.0000 </r>
       <r>   -7.5542    1.0000 </r>
       <r>   -7.5540    1.0000 </r>
       <r>   -7.1982    1.0000 </r>
       <r>   -7.1982    1.0000 </r>
       <r>   -6.9042    1.0000 </r>
       <r>   -6.9040    1.0000 </r>
       <r>   -6.8073    1.0000 </r>
       <r>   -6.8073    1.0000 </r>
       <r>   -6.4556    1.0000 </r>
       <r>   -6.4554    1.0000 </r>
       <r>   -6.3726    1.0000 </r>
       <r>   -6.3725    1.0000 </r>
       <r>   -6.3273    1.0000 </r>
       <r>   -6.3271    1.0000 </r>
       <r>   -5.8547    1.0000 </r>
       <r>   -5.8546    1.0000 </r>
       <r>   -5.5983    1.0000 </r>
       <r>   -5.5982    1.0000 </r>
       <r>   -5.5685    1.0000 </r>
       <r>   -5.5684    1.0000 </r>
       <r>   -5.3755    1.0000 </r>
       <r>   -5.3754    1.0000 </r>
       <r>   -5.2139    1.0000 </r>
       <r>   -5.2137    1.0000 </r>
       <r>   -5.2135    1.0000 </r>
       <r>   -5.2135    1.0000 </r>
       <r>   -5.1523    1.0000 </r>
       <r>   -5.1522    1.0000 </r>
       <r>   -4.9512    1.0000 </r>
       <r>   -4.9511    1.0000 </r>
       <r>   -4.9418    1.0000 </r>
       <r>   -4.9417    1.0000 </r>
       <r>   -4.5358    1.0000 </r>
       <r>   -4.5358    1.0000 </r>
       <r>   -4.2034    1.0000 </r>
       <r>   -4.2034    1.0000 </r>
       <r>   -4.1211    1.0000 </r>
       <r>   -4.1209    1.0000 </r>
       <r>   -4.0171    1.0000 </r>
       <r>   -4.0170    1.0000 </r>
       <r>   -3.9546    1.0000 </r>
       <r>   -3.9544    1.0000 </r>
       <r>   -3.8088    1.0000 </r>
       <r>   -3.8086    1.0000 </r>
       <r>   -3.2896    1.0000 </r>
       <r>   -3.2895    1.0000 </r>
       <r>   -3.2652    1.0000 </r>
       <r>   -3.2650    1.0000 </r>
       <r>   -3.0520    1.0000 </r>
       <r>   -3.0519    1.0000 </r>
       <r>   -2.6428    1.0000 </r>
       <r>   -2.6426    1.0000 </r>
       <r>   -2.5298    0.8657 </r>
       <r>   -2.5296    0.8648 </r>
       <r>   -2.3297    0.0000 </r>
       <r>   -2.3294    0.0000 </r>
       <r>   -0.8312    0.0000 </r>
       <r>   -0.8312    0.0000 </r>
       <r>   -0.5209    0.0000 </r>
       <r>   -0.5206    0.0000 </r>
       <r>    0.3285    0.0000 </r>
       <r>    0.3287    0.0000 </r>
       <r>    2.1451    0.0000 </r>
       <r>    2.1452    0.0000 </r>
      </set>
     </set>
    </set>
   </array>
  </eigenvalues>
  <separator name="orbital magnetization" >
   <v name="MAGDIPOLOUT">      0.00000000      0.00000000      0.00000000</v>
  </separator>
  <dos>
   <i name="efermi">     -2.49065594 </i>
   <total>
    <array>
     <dimension dim="1">gridpoints</dimension>
     <dimension dim="2">spin</dimension>
     <field>energy</field>
     <field>total</field>
     <field>integrated</field>
     <set>
      <set comment="spin 1">
       <r>   -11.9164     0.0000     0.0000 </r>
       <r>   -11.8673     0.0000     0.0000 </r>
       <r>   -11.8182     0.0000     0.0000 </r>
       <r>   -11.7691     0.0000     0.0000 </r>
       <r>   -11.7200     0.0000     0.0000 </r>
       <r>   -11.6709     0.0000     0.0000 </r>
       <r>   -11.6218     0.0000     0.0000 </r>
       <r>   -11.5727     0.0000     0.0000 </r>
       <r>   -11.5236     0.0000     0.0000 </r>
       <r>   -11.4745     0.0000     0.0000 </r>
       <r>   -11.4254     0.0000     0.0000 </r>
       <r>   -11.3763     0.0013     0.0001 </r>
       <r>   -11.3272     0.1160     0.0058 </r>
       <r>   -11.2781     1.8010     0.0942 </r>
       <r>   -11.2290     5.1405     0.3466 </r>
       <r>   -11.1799     2.8271     0.4854 </r>
       <r>   -11.1307     0.2913     0.4997 </r>
       <r>   -11.0816     0.0052     0.5000 </r>
       <r>   -11.0325     0.0000     0.5000 </r>
       <r>   -10.9834     0.0000     0.5000 </r>
       <r>   -10.9343     0.0000     0.5000 </r>
       <r>   -10.8852     0.0000     0.5000 </r>
       <r>   -10.8361     0.0000     0.5000 </r>
       <r>   -10.7870     0.0000     0.5000 </r>
       <r>   -10.7379     0.0000     0.5000 </r>
       <r>   -10.6888     0.0000     0.5000 </r>
       <r>   -10.6397     0.0000     0.5000 </r>
       <r>   -10.5906     0.0000     0.5000 </r>
       <r>   -10.5415     0.0000     0.5000 </r>
       <r>   -10.4924     0.0000     0.5000 </r>
       <r>   -10.4433     0.0000     0.5000 </r>
       <r>   -10.3942     0.0000     0.5000 </r>
       <r>   -10.3451     0.0000     0.5000 </r>
       <r>   -10.2960     0.0000     0.5000 </r>
       <r>   -10.2469     0.0000     0.5000 </r>
       <r>   -10.1978     0.0000     0.5000 </r>
       <r>   -10.1487     0.0000     0.5000 </r>
       <r>   -10.0996     0.0000     0.5000 </r>
       <r>   -10.0505     0.0000     0.5000 </r>
       <r>   -10.0014     0.0000     0.5000 </r>
       <r>    -9.9523     0.0000     0.5000 </r>
       <r>    -9.9031     0.0000     0.5000 </r>
       <r>    -9.8540     0.0000     0.5000 </r>
       <r>    -9.8049     0.0000     0.5000 </r>
       <r>    -9.7558     0.0001     0.5000 </r>
       <r>    -9.7067     0.0150     0.5007 </r>
       <r>    -9.6576     0.5617     0.5283 </r>
       <r>    -9.6085     3.7535     0.7126 </r>
       <r>    -9.5594     6.2204     1.0181 </r>
       <r>    -9.5103    17.0709     1.8563 </r>
       <r>    -9.4612    31.1419     3.3855 </r>
       <r>    -9.4121    11.6930     3.9597 </r>
       <r>    -9.3630     0.8112     3.9995 </r>
       <r>    -9.3139     0.0096     4.0000 </r>
       <r>    -9.2648     0.0000     4.0000 </r>
       <r>    -9.2157     0.0043     4.0002 </r>
       <r>    -9.1666     0.2583     4.0129 </r>
       <r>    -9.1175     2.6754     4.1443 </r>
       <r>    -9.0684     5.1781     4.3985 </r>
       <r>    -9.0193     1.9318     4.4934 </r>
       <r>    -8.9702     0.1329     4.4999 </r>
       <r>    -8.9211     0.0016     4.5000 </r>
       <r>    -8.8720     0.0000     4.5000 </r>
       <r>    -8.8229     0.0006     4.5000 </r>
       <r>    -8.7738     0.0985     4.5049 </r>
       <r>    -8.7247     2.6882     4.6369 </r>
       <r>    -8.6755    13.1654     5.2833 </r>
       <r>    -8.6264    12.3255     5.8886 </r>
       <r>    -8.5773     2.1994     5.9966 </r>
       <r>    -8.5282     0.1715     6.0050 </r>
       <r>    -8.4791     2.7359     6.1393 </r>
       <r>    -8.4300    13.2365     6.7893 </r>
       <r>    -8.3809    12.2466     7.3907 </r>
       <r>    -8.3318     2.1593     7.4967 </r>
       <r>    -8.2827     0.2292     7.5080 </r>
       <r>    -8.2336     4.7846     7.7429 </r>
       <r>    -8.1845    25.3635     8.9883 </r>
       <r>    -8.1354    25.6573    10.2482 </r>
       <r>    -8.0863     4.9554    10.4915 </r>
       <r>    -8.0372     0.2016    10.5014 </r>
       <r>    -7.9881     1.3363    10.5671 </r>
       <r>    -7.9390    10.9739    11.1059 </r>
       <r>    -7.8899    23.0360    12.2371 </r>
       <r>    -7.8408    22.0881    13.3217 </r>
       <r>    -7.7917    25.6479    14.5811 </r>
       <r>    -7.7426    30.8712    16.0970 </r>
       <r>    -7.6935    20.1360    17.0858 </r>
       <r>    -7.6444    31.8379    18.6491 </r>
       <r>    -7.5953    23.2121    19.7889 </r>
       <r>    -7.5462    30.0673    21.2654 </r>
       <r>    -7.4970    21.8860    22.3401 </r>
       <r>    -7.4479     3.1754    22.4960 </r>
       <r>    -7.3988     0.0815    22.5000 </r>
       <r>    -7.3497     0.0009    22.5000 </r>
       <r>    -7.3006     0.1146    22.5057 </r>
       <r>    -7.2515     3.9045    22.6974 </r>
       <r>    -7.2024    23.6342    23.8579 </r>
       <r>    -7.1533    27.2053    25.1938 </r>
       <r>    -7.1042     5.9960    25.4882 </r>
       <r>    -7.0551     0.2386    25.5000 </r>
       <r>    -7.0060     0.1211    25.5059 </r>
       <r>    -6.9569     4.0045    25.7025 </r>
       <r>    -6.9078    23.9852    26.8803 </r>
       <r>    -6.8587    31.3482    28.4196 </r>
       <r>    -6.8096    30.3625    29.9105 </r>
       <r>    -6.7605    26.6962    31.2214 </r>
       <r>    -6.7114     5.4688    31.4900 </r>
       <r>    -6.6623     0.2028    31.4999 </r>
       <r>    -6.6132     0.0015    31.5000 </r>
       <r>    -6.5641     0.0648    31.5032 </r>
       <r>    -6.5150     2.7602    31.6387 </r>
       <r>    -6.4659    20.9309    32.6665 </r>
       <r>    -6.4168    36.5744    34.4625 </r>
       <r>    -6.3677    50.8892    36.9613 </r>
       <r>    -6.3186    67.9664    40.2988 </r>
       <r>    -6.2694    31.0126    41.8216 </r>
       <r>    -6.2203     3.5523    41.9960 </r>
       <r>    -6.1712     0.2360    42.0076 </r>
       <r>    -6.1221     3.4764    42.1783 </r>
       <r>    -6.0730    14.1622    42.8737 </r>
       <r>    -6.0239    11.0781    43.4177 </r>
       <r>    -5.9748     2.2242    43.5269 </r>
       <r>    -5.9257     8.2148    43.9303 </r>
       <r>    -5.8766    30.5723    45.4315 </r>
       <r>    -5.8275    38.1918    47.3069 </r>
       <r>    -5.7784    13.1575    47.9530 </r>
       <r>    -5.7293     0.9518    47.9997 </r>
       <r>    -5.6802     0.7174    48.0350 </r>
       <r>    -5.6311    13.7503    48.7102 </r>
       <r>    -5.5820    57.5753    51.5373 </r>
       <r>    -5.5329    56.8638    54.3296 </r>
       <r>    -5.4838    13.3044    54.9829 </r>
       <r>    -5.4347     7.4216    55.3473 </r>
       <r>    -5.3856    35.2554    57.0785 </r>
       <r>    -5.3365    39.6261    59.0243 </r>
       <r>    -5.2874    13.0451    59.6649 </r>
       <r>    -5.2383    38.9547    61.5777 </r>
       <r>    -5.1892    85.6818    65.7850 </r>
       <r>    -5.1401    61.0577    68.7832 </r>
       <r>    -5.0910    22.2131    69.8739 </r>
       <r>    -5.0418     2.9675    70.0197 </r>
       <r>    -4.9927    11.4512    70.5820 </r>
       <r>    -4.9436    53.0344    73.1862 </r>
       <r>    -4.8945    48.3971    75.5627 </r>
       <r>    -4.8454     8.6237    75.9861 </r>
       <r>    -4.7963     0.2813    75.9999 </r>
       <r>    -4.7472     0.0191    76.0009 </r>
       <r>    -4.6981     0.9405    76.0470 </r>
       <r>    -4.6490     8.8080    76.4796 </r>
       <r>    -4.5999    17.4199    77.3349 </r>
       <r>    -4.5508    23.5261    78.4902 </r>
       <r>    -4.5017    30.6868    79.9970 </r>
       <r>    -4.4526     9.6737    80.4720 </r>
       <r>    -4.4035     0.5640    80.4997 </r>
       <r>    -4.3544     0.0062    80.5000 </r>
       <r>    -4.3053     0.1206    80.5059 </r>
       <r>    -4.2562     4.0279    80.7037 </r>
       <r>    -4.2071    24.3433    81.8991 </r>
       <r>    -4.1580    35.5658    83.6455 </r>
       <r>    -4.1089    35.8349    85.4051 </r>
       <r>    -4.0598    26.7684    86.7196 </r>
       <r>    -4.0107    33.8220    88.3804 </r>
       <r>    -3.9616    44.9600    90.5881 </r>
       <r>    -3.9125    32.0727    92.1630 </r>
       <r>    -3.8634    14.7162    92.8856 </r>
       <r>    -3.8142    37.2759    94.7160 </r>
       <r>    -3.7651    50.2101    97.1815 </r>
       <r>    -3.7160    31.7906    98.7426 </r>
       <r>    -3.6669    13.4884    99.4049 </r>
       <r>    -3.6178     1.8842    99.4974 </r>
       <r>    -3.5687     0.0521    99.5000 </r>
       <r>    -3.5196     0.0002    99.5000 </r>
       <r>    -3.4705     0.0000    99.5000 </r>
       <r>    -3.4214     0.0061    99.5003 </r>
       <r>    -3.3723     0.6548    99.5325 </r>
       <r>    -3.3232    12.8114   100.1615 </r>
       <r>    -3.2741    51.7821   102.7043 </r>
       <r>    -3.2250    47.2154   105.0227 </r>
       <r>    -3.1759    12.8893   105.6556 </r>
       <r>    -3.1268    11.9341   106.2416 </r>
       <r>    -3.0777    22.1741   107.3305 </r>
       <r>    -3.0286    37.0515   109.1499 </r>
       <r>    -2.9795    15.9796   109.9345 </r>
       <r>    -2.9304     1.3146   109.9991 </r>
       <r>    -2.8813     0.0188   110.0000 </r>
       <r>    -2.8322     0.0083   110.0004 </r>
       <r>    -2.7831     0.5816   110.0290 </r>
       <r>    -2.7340     7.2937   110.3871 </r>
       <r>    -2.6849    23.0180   111.5174 </r>
       <r>    -2.6358    41.9384   113.5767 </r>
       <r>    -2.5866    44.8906   115.7810 </r>
       <r>    -2.5375    43.3307   117.9088 </r>
       <r>    -2.4884    44.1726   120.0778 </r>
       <r>    -2.4393    23.2185   121.2179 </r>
       <r>    -2.3902     8.0454   121.6130 </r>
       <r>    -2.3411    20.3757   122.6135 </r>
       <r>    -2.2920    29.6011   124.0671 </r>
       <r>    -2.2429     9.1314   124.5154 </r>
       <r>    -2.1938     8.5023   124.9329 </r>
       <r>    -2.1447    19.8482   125.9076 </r>
       <r>    -2.0956    20.8066   126.9293 </r>
       <r>    -2.0465    10.3404   127.4370 </r>
       <r>    -1.9974     1.2551   127.4986 </r>
       <r>    -1.9483     0.0277   127.5000 </r>
       <r>    -1.8992     0.0001   127.5000 </r>
       <r>    -1.8501     0.0000   127.5000 </r>
       <r>    -1.8010     0.0000   127.5000 </r>
       <r>    -1.7519     0.0000   127.5000 </r>
       <r>    -1.7028     0.0000   127.5000 </r>
       <r>    -1.6537     0.0012   127.5001 </r>
       <r>    -1.6046     0.1114   127.5055 </r>
       <r>    -1.5555     1.7626   127.5921 </r>
       <r>    -1.5064     5.1269   127.8438 </r>
       <r>    -1.4573     2.8758   127.9850 </r>
       <r>    -1.4082     0.5837   128.0137 </r>
       <r>    -1.3590     4.8400   128.2514 </r>
       <r>    -1.3099    15.1832   128.9969 </r>
       <r>    -1.2608     9.1807   129.4477 </r>
       <r>    -1.2117     1.0435   129.4990 </r>
       <r>    -1.1626     0.0207   129.5000 </r>
       <r>    -1.1135     0.0001   129.5000 </r>
       <r>    -1.0644     0.0000   129.5000 </r>
       <r>    -1.0153     0.0000   129.5000 </r>
       <r>    -0.9662     0.0041   129.5002 </r>
       <r>    -0.9171     0.4579   129.5227 </r>
       <r>    -0.8680     8.6446   129.9472 </r>
       <r>    -0.8189    29.7634   131.4087 </r>
       <r>    -0.7698    19.7094   132.3765 </r>
       <r>    -0.7207     2.4612   132.4973 </r>
       <r>    -0.6716     0.0545   132.5000 </r>
       <r>    -0.6225     0.1218   132.5060 </r>
       <r>    -0.5734     4.0459   132.7047 </r>
       <r>    -0.5243    23.9391   133.8802 </r>
       <r>    -0.4752    26.9531   135.2037 </r>
       <r>    -0.4261     5.8078   135.4889 </r>
       <r>    -0.3770     0.2252   135.4999 </r>
       <r>    -0.3279     0.0015   135.5000 </r>
       <r>    -0.2788     0.0000   135.5000 </r>
       <r>    -0.2297     0.0000   135.5000 </r>
       <r>    -0.1806     0.0000   135.5000 </r>
       <r>    -0.1314     0.0000   135.5000 </r>
       <r>    -0.0823     0.0000   135.5000 </r>
       <r>    -0.0332     0.0000   135.5000 </r>
       <r>     0.0159     0.0000   135.5000 </r>
       <r>     0.0650     0.0008   135.5000 </r>
       <r>     0.1141     0.1152   135.5057 </r>
       <r>     0.1632     2.9681   135.6514 </r>
       <r>     0.2123    14.6319   136.3699 </r>
       <r>     0.2614    20.9592   137.3991 </r>
       <r>     0.3105    28.2884   138.7882 </r>
       <r>     0.3596    33.2908   140.4229 </r>
       <r>     0.4087    11.0326   140.9646 </r>
       <r>     0.4578     0.7121   140.9996 </r>
       <r>     0.5069     0.0079   141.0000 </r>
       <r>     0.5560     0.0000   141.0000 </r>
       <r>     0.6051     0.0000   141.0000 </r>
       <r>     0.6542     0.0000   141.0000 </r>
       <r>     0.7033     0.0000   141.0000 </r>
       <r>     0.7524     0.0000   141.0000 </r>
       <r>     0.8015     0.0000   141.0000 </r>
       <r>     0.8506     0.0000   141.0000 </r>
       <r>     0.8997     0.0000   141.0000 </r>
       <r>     0.9488     0.0000   141.0000 </r>
       <r>     0.9979     0.0000   141.0000 </r>
       <r>     1.0470     0.0000   141.0000 </r>
       <r>     1.0962     0.0000   141.0000 </r>
       <r>     1.1453     0.0000   141.0000 </r>
       <r>     1.1944     0.0000   141.0000 </r>
       <r>     1.2435     0.0000   141.0000 </r>
       <r>     1.2926     0.0000   141.0000 </r>
       <r>     1.3417     0.0000   141.0000 </r>
       <r>     1.3908     0.0000   141.0000 </r>
       <r>     1.4399     0.0000   141.0000 </r>
       <r>     1.4890     0.0000   141.0000 </r>
       <r>     1.5381     0.0000   141.0000 </r>
       <r>     1.5872     0.0000   141.0000 </r>
       <r>     1.6363     0.0000   141.0000 </r>
       <r>     1.6854     0.0000   141.0000 </r>
       <r>     1.7345     0.0000   141.0000 </r>
       <r>     1.7836     0.0000   141.0000 </r>
       <r>     1.8327     0.0000   141.0000 </r>
       <r>     1.8818     0.0000   141.0000 </r>
       <r>     1.9309     0.0000   141.0000 </r>
       <r>     1.9800     0.0001   141.0000 </r>
       <r>     2.0291     0.0314   141.0015 </r>
       <r>     2.0782     1.7511   141.0875 </r>
       <r>     2.1273    16.9781   141.9212 </r>
       <r>     2.1764    30.8388   143.4355 </r>
       <r>     2.2255    10.7930   143.9655 </r>
       <r>     2.2746     0.6947   143.9996 </r>
       <r>     2.3238     0.0076   144.0000 </r>
       <r>     2.3729     0.0000   144.0000 </r>
       <r>     2.4220     0.0000   144.0000 </r>
       <r>     2.4711     0.0000   144.0000 </r>
       <r>     2.5202     0.0000   144.0000 </r>
       <r>     2.5693     0.0000   144.0000 </r>
       <r>     2.6184     0.0000   144.0000 </r>
       <r>     2.6675     0.0000   144.0000 </r>
       <r>     2.7166     0.0000   144.0000 </r>
       <r>     2.7657     0.0000   144.0000 </r>
       <r>     2.8148     0.0000   144.0000 </r>
      </set>
     </set>
    </array>
   </total>
   <partial>
    <array>
     <dimension dim="1">gridpoints</dimension>
     <dimension dim="2">spin</dimension>
     <dimension dim="3">ion</dimension>
     <field>energy</field>
     <field>    s</field>
     <field>   py</field>
     <field>   pz</field>
     <field>   px</field>
     <field>  dxy</field>
     <field>  dyz</field>
     <field>  dz2</field>
     <field>  dxz</field>
     <field>x2-y2</field>
     <set>
      <set comment="ion 1">
       <set comment="spin 1">
        <r>   -11.9164     0.0000     0.0000     0.0000     0.0000     0.0000     0.0000     0.0000     0.0000     0.0000 </r>
        <r>   -11.8673     0.0000     0.0000     0.0000     0.0000     0.0000     0.0000     0.0000     0.0000     0.0000 </r>
        <r>   -11.8182     0.0000     0.0000     0.0000     0.0000     0.0000     0.0000     0.0000     0.0000     0.0000 </r>
        <r>   -11.7691     0.0000     0.0000     0.0000     0.0000     0.0000     0.0000     0.0000     0.0000     0.0000 </r>
        <r>   -11.7200     0.0000     0.0000     0.0000     0.0000     0.0000     0.0000     0.0000     0.0000     0.0000 </r>
        <r>   -11.6709     0.0000     0.0000     0.0000     0.0000     0.0000     0.0000     0.0000     0.0000     0.0000 </r>
        <r>   -11.6218     0.0000     0.0000     0.0000     0.0000     0.0000     0.0000     0.0000     0.0000     0.0000 </r>
        <r>   -11.5727     0.0000     0.0000     0.0000     0.0000     0.0000     0.0000     0.0000     0.0000     0.0000 </r>
        <r>   -11.5236     0.0000     0.0000     0.0000     0.0000     0.0000     0.0000     0.0000     0.0000     0.0000 </r>
        <r>   -11.4745     0.0000     0.0000     0.0000     0.0000     0.0000     0.0000     0.0000     0.0000     0.0000 </r>
        <r>   -11.4254     0.0000     0.0000     0.0000     0.0000     0.0000     0.0000     0.0000     0.0000     0.0000 </r>
        <r>   -11.3763     0.0001     0.0000     0.0000     0.0000     0.0000     0.0000     0.0000     0.0000     0.0000 </r>
        <r>   -11.3272     0.0048     0.0000     0.0004     0.0000     0.0000     0.0000     0.0000     0.0000     0.0000 </r>
        <r>   -11.2781     0.0751     0.0000     0.0059     0.0000     0.0000     0.0000     0.0006     0.0000     0.0000 </r>
        <r>   -11.2290     0.2144     0.0000     0.0168     0.0000     0.0000     0.0000     0.0017     0.0000     0.0000 </r>
        <r>   -11.1799     0.1179     0.0000     0.0092     0.0000     0.0000     0.0000     0.0009     0.0000     0.0000 </r>
        <r>   -11.1307     0.0121     0.0000     0.0010     0.0000     0.0000     0.0000     0.0001     0.0000     0.0000 </r>
        <r>   -11.0816     0.0002     0.0000     0.0000     0.0000     0.0000     0.0000     0.0000     0.0000     0.0000 </r>
        <r>   -11.0325     0.0000     0.0000     0.0000     0.0000     0.0000     0.0000     0.0000     0.0000     0.0000 </r>
        <r>   -10.9834     0.0000     0.0000     0.0000     0.0000     0.0000     0.0000     0.0000     0.0000     0.0000 </r>
        <r>   -10.9343     0.0000     0.0000     0.0000     0.0000     0.0000     0.0000     0.0000     0.0000     0.0000 </r>
        <r>   -10.8852     0.0000     0.0000     0.0000     0.0000     0.0000     0.0000     0.0000     0.0000     0.0000 </r>
        <r>   -10.8361     0.0000     0.0000     0.0000     0.0000     0.0000     0.0000     0.0000     0.0000     0.0000 </r>
        <r>   -10.7870     0.0000     0.0000     0.0000     0.0000     0.0000     0.0000     0.0000     0.0000     0.0000 </r>
        <r>   -10.7379     0.0000     0.0000     0.0000     0.0000     0.0000     0.0000     0.0000     0.0000     0.0000 </r>
        <r>   -10.6888     0.0000     0.0000     0.0000     0.0000     0.0000     0.0000     0.0000     0.0000     0.0000 </r>
        <r>   -10.6397     0.0000     0.0000     0.0000     0.0000     0.0000     0.0000     0.0000     0.0000     0.0000 </r>
        <r>   -10.5906     0.0000     0.0000     0.0000     0.0000     0.0000     0.0000     0.0000     0.0000     0.0000 </r>
        <r>   -10.5415     0.0000     0.0000     0.0000     0.0000     0.0000     0.0000     0.0000     0.0000     0.0000 </r>
        <r>   -10.4924     0.0000     0.0000     0.0000     0.0000     0.0000     0.0000     0.0000     0.0000     0.0000 </r>
        <r>   -10.4433     0.0000     0.0000     0.0000     0.0000     0.0000     0.0000     0.0000     0.0000     0.0000 </r>
        <r>   -10.3942     0.0000     0.0000     0.0000     0.0000     0.0000     0.0000     0.0000     0.0000     0.0000 </r>
        <r>   -10.3451     0.0000     0.0000     0.0000     0.0000     0.0000     0.0000     0.0000     0.0000     0.0000 </r>
        <r>   -10.2960     0.0000     0.0000     0.0000     0.0000     0.0000     0.0000     0.0000     0.0000     0.0000 </r>
        <r>   -10.2469     0.0000     0.0000     0.0000     0.0000     0.0000     0.0000     0.0000     0.0000     0.0000 </r>
        <r>   -10.1978     0.0000     0.0000     0.0000     0.0000     0.0000     0.0000     0.0000     0.0000     0.0000 </r>
        <r>   -10.1487     0.0000     0.0000     0.0000     0.0000     0.0000     0.0000     0.0000     0.0000     0.0000 </r>
        <r>   -10.0996     0.0000     0.0000     0.0000     0.0000     0.0000     0.0000     0.0000     0.0000     0.0000 </r>
        <r>   -10.0505     0.0000     0.0000     0.0000     0.0000     0.0000     0.0000     0.0000     0.0000     0.0000 </r>
        <r>   -10.0014     0.0000     0.0000     0.0000     0.0000     0.0000     0.0000     0.0000     0.0000     0.0000 </r>
        <r>    -9.9523     0.0000     0.0000     0.0000     0.0000     0.0000     0.0000     0.0000     0.0000     0.0000 </r>
        <r>    -9.9031     0.0000     0.0000     0.0000     0.0000     0.0000     0.0000     0.0000     0.0000     0.0000 </r>
        <r>    -9.8540     0.0000     0.0000     0.0000     0.0000     0.0000     0.0000     0.0000     0.0000     0.0000 </r>
        <r>    -9.8049     0.0000     0.0000     0.0000     0.0000     0.0000     0.0000     0.0000     0.0000     0.0000 </r>
        <r>    -9.7558     0.0000     0.0000     0.0000     0.0000     0.0000     0.0000     0.0000     0.0000     0.0000 </r>
        <r>    -9.7067     0.0011     0.0000     0.0000     0.0000     0.0000     0.0000     0.0003     0.0000     0.0000 </r>
        <r>    -9.6576     0.0398     0.0000     0.0001     0.0000     0.0000     0.0000     0.0126     0.0000     0.0000 </r>
        <r>    -9.6085     0.2651     0.0001     0.0007     0.0001     0.0000     0.0001     0.0835     0.0001     0.0000 </r>
        <r>    -9.5594     0.3804     0.0036     0.0061     0.0036     0.0027     0.0037     0.1053     0.0037     0.0027 </r>
        <r>    -9.5103     0.5771     0.0381     0.0558     0.0381     0.0286     0.0385     0.0274     0.0385     0.0286 </r>
        <r>    -9.4612     0.9722     0.0743     0.1084     0.0743     0.0557     0.0750     0.0051     0.0750     0.0557 </r>
        <r>    -9.4121     0.3641     0.0279     0.0408     0.0279     0.0209     0.0282     0.0015     0.0282     0.0209 </r>
        <r>    -9.3630     0.0252     0.0019     0.0028     0.0019     0.0015     0.0020     0.0001     0.0020     0.0015 </r>
        <r>    -9.3139     0.0003     0.0000     0.0000     0.0000     0.0000     0.0000     0.0000     0.0000     0.0000 </r>
        <r>    -9.2648     0.0000     0.0000     0.0000     0.0000     0.0000     0.0000     0.0000     0.0000     0.0000 </r>
        <r>    -9.2157     0.0001     0.0000     0.0000     0.0000     0.0000     0.0000     0.0001     0.0000     0.0000 </r>
        <r>    -9.1666     0.0058     0.0000     0.0001     0.0000     0.0000     0.0000     0.0078     0.0000     0.0000 </r>
        <r>    -9.1175     0.0601     0.0000     0.0014     0.0000     0.0000     0.0000     0.0803     0.0000     0.0000 </r>
        <r>    -9.0684     0.1163     0.0000     0.0027     0.0000     0.0000     0.0000     0.1555     0.0000     0.0000 </r>
        <r>    -9.0193     0.0434     0.0000     0.0010     0.0000     0.0000     0.0000     0.0580     0.0000     0.0000 </r>
        <r>    -8.9702     0.0030     0.0000     0.0001     0.0000     0.0000     0.0000     0.0040     0.0000     0.0000 </r>
        <r>    -8.9211     0.0000     0.0000     0.0000     0.0000     0.0000     0.0000     0.0000     0.0000     0.0000 </r>
        <r>    -8.8720     0.0000     0.0000     0.0000     0.0000     0.0000     0.0000     0.0000     0.0000     0.0000 </r>
        <r>    -8.8229     0.0000     0.0000     0.0000     0.0000     0.0000     0.0000     0.0000     0.0000     0.0000 </r>
        <r>    -8.7738     0.0002     0.0001     0.0001     0.0001     0.0000     0.0006     0.0004     0.0006     0.0000 </r>
        <r>    -8.7247     0.0063     0.0016     0.0025     0.0016     0.0005     0.0160     0.0108     0.0159     0.0005 </r>
        <r>    -8.6755     0.0307     0.0080     0.0122     0.0079     0.0024     0.0781     0.0529     0.0780     0.0024 </r>
        <r>    -8.6264     0.0287     0.0074     0.0114     0.0075     0.0023     0.0730     0.0494     0.0732     0.0023 </r>
        <r>    -8.5773     0.0051     0.0013     0.0020     0.0013     0.0004     0.0130     0.0088     0.0131     0.0004 </r>
        <r>    -8.5282     0.0019     0.0000     0.0001     0.0000     0.0041     0.0004     0.0003     0.0005     0.0040 </r>
        <r>    -8.4791     0.0473     0.0000     0.0021     0.0000     0.1090     0.0009     0.0018     0.0009     0.1086 </r>
        <r>    -8.4300     0.2289     0.0001     0.0103     0.0001     0.5264     0.0043     0.0085     0.0043     0.5259 </r>
        <r>    -8.3809     0.2120     0.0001     0.0095     0.0001     0.4862     0.0040     0.0079     0.0040     0.4868 </r>
        <r>    -8.3318     0.0374     0.0000     0.0017     0.0000     0.0855     0.0007     0.0014     0.0007     0.0859 </r>
        <r>    -8.2827     0.0075     0.0004     0.0001     0.0004     0.0048     0.0001     0.0014     0.0001     0.0049 </r>
        <r>    -8.2336     0.1865     0.0124     0.0025     0.0124     0.0643     0.0017     0.0415     0.0017     0.0642 </r>
        <r>    -8.1845     0.9889     0.0657     0.0133     0.0657     0.3406     0.0092     0.2199     0.0092     0.3406 </r>
        <r>    -8.1354     1.0005     0.0664     0.0135     0.0665     0.3444     0.0093     0.2225     0.0093     0.3446 </r>
        <r>    -8.0863     0.1932     0.0128     0.0026     0.0128     0.0665     0.0018     0.0430     0.0018     0.0666 </r>
        <r>    -8.0372     0.0069     0.0004     0.0001     0.0004     0.0036     0.0001     0.0017     0.0001     0.0036 </r>
        <r>    -7.9881     0.0113     0.0002     0.0000     0.0002     0.0557     0.0018     0.0101     0.0018     0.0554 </r>
        <r>    -7.9390     0.0871     0.0020     0.0008     0.0020     0.4276     0.0254     0.0832     0.0254     0.4265 </r>
        <r>    -7.8899     0.1350     0.0110     0.0078     0.0111     0.6247     0.1536     0.1726     0.1537     0.6254 </r>
        <r>    -7.8408     0.0910     0.0222     0.0159     0.0222     0.1999     0.2612     0.1871     0.2611     0.2007 </r>
        <r>    -7.7917     0.3199     0.0383     0.0161     0.0383     0.1381     0.0948     0.3934     0.0946     0.1380 </r>
        <r>    -7.7426     0.4770     0.0515     0.0186     0.0515     0.1923     0.0260     0.5301     0.0261     0.1922 </r>
[...]
        <r>  0.0000  0.0000  0.0000  0.0000  0.0018  0.1598  0.0000  0.0532  0.0054 </r>
       </set>
       <set comment="band 57">
        <r>  0.0220  0.0000  0.0051  0.0000  0.0005  0.0014  0.0863  0.0041  0.0002 </r>
        <r>  0.0003  0.0007  0.0005  0.0021  0.0030  0.0000  0.0003  0.0001  0.0010 </r>
        <r>  0.0003  0.0007  0.0005  0.0021  0.0030  0.0000  0.0003  0.0001  0.0010 </r>
        <r>  0.0220  0.0000  0.0051  0.0000  0.0005  0.0014  0.0863  0.0042  0.0002 </r>
        <r>  0.0003  0.0000  0.0024  0.0000  0.0009  0.0180  0.0000  0.0541  0.0003 </r>
        <r>  0.0004  0.0000  0.0017  0.0000  0.0008  0.0236  0.0001  0.0708  0.0003 </r>
        <r>  0.0004  0.0000  0.0017  0.0000  0.0008  0.0236  0.0001  0.0708  0.0003 </r>
        <r>  0.0003  0.0000  0.0024  0.0000  0.0009  0.0181  0.0000  0.0541  0.0003 </r>
        <r>  0.0000  0.0007  0.0008  0.0020  0.0025  0.0000  0.0025  0.0001  0.0008 </r>
        <r>  0.0224  0.0000  0.0039  0.0000  0.0001  0.0012  0.0812  0.0036  0.0000 </r>
        <r>  0.0224  0.0000  0.0039  0.0000  0.0001  0.0012  0.0812  0.0036  0.0000 </r>
        <r>  0.0000  0.0007  0.0008  0.0020  0.0025  0.0000  0.0025  0.0001  0.0008 </r>
       </set>
       <set comment="band 58">
        <r>  0.0003  0.0007  0.0005  0.0021  0.0030  0.0000  0.0003  0.0001  0.0010 </r>
        <r>  0.0220  0.0000  0.0051  0.0000  0.0005  0.0014  0.0863  0.0042  0.0002 </r>
        <r>  0.0220  0.0000  0.0051  0.0000  0.0005  0.0014  0.0863  0.0041  0.0002 </r>
        <r>  0.0003  0.0007  0.0005  0.0021  0.0030  0.0000  0.0003  0.0001  0.0010 </r>
        <r>  0.0004  0.0000  0.0017  0.0000  0.0008  0.0236  0.0001  0.0708  0.0003 </r>
        <r>  0.0003  0.0000  0.0024  0.0000  0.0009  0.0181  0.0000  0.0541  0.0003 </r>
        <r>  0.0003  0.0000  0.0024  0.0000  0.0009  0.0180  0.0000  0.0541  0.0003 </r>
        <r>  0.0004  0.0000  0.0017  0.0000  0.0008  0.0236  0.0001  0.0708  0.0003 </r>
        <r>  0.0224  0.0000  0.0039  0.0000  0.0001  0.0012  0.0812  0.0036  0.0000 </r>
        <r>  0.0000  0.0007  0.0008  0.0020  0.0025  0.0000  0.0025  0.0001  0.0008 </r>
        <r>  0.0000  0.0007  0.0008  0.0020  0.0025  0.0000  0.0025  0.0001  0.0008 </r>
        <r>  0.0224  0.0000  0.0039  0.0000  0.0001  0.0012  0.0812  0.0036  0.0000 </r>
       </set>
       <set comment="band 59">
        <r>  0.0000  0.0003  0.0000  0.0001  0.0003  0.0019  0.0000  0.0006  0.0010 </r>
        <r>  0.0040  0.0000  0.0020  0.0001  0.0223  0.0051  0.1299  0.0154  0.0074 </r>
        <r>  0.0040  0.0000  0.0020  0.0001  0.0223  0.0051  0.1299  0.0154  0.0074 </r>
        <r>  0.0000  0.0003  0.0000  0.0001  0.0003  0.0019  0.0000  0.0006  0.0010 </r>
        <r>  0.0000  0.0000  0.0000  0.0000  0.0014  0.0712  0.0000  0.0237  0.0042 </r>
        <r>  0.0000  0.0000  0.0004  0.0000  0.0001  0.0000  0.0000  0.0000  0.0000 </r>
        <r>  0.0000  0.0000  0.0004  0.0000  0.0001  0.0000  0.0000  0.0000  0.0000 </r>
        <r>  0.0000  0.0000  0.0000  0.0000  0.0014  0.0713  0.0000  0.0238  0.0042 </r>
        <r>  0.0000  0.0004  0.0000  0.0001  0.0003  0.0017  0.0000  0.0006  0.0008 </r>
        <r>  0.0046  0.0000  0.0018  0.0000  0.0202  0.0046  0.1266  0.0137  0.0067 </r>
        <r>  0.0046  0.0000  0.0018  0.0000  0.0202  0.0046  0.1267  0.0138  0.0067 </r>
        <r>  0.0000  0.0004  0.0000  0.0001  0.0003  0.0017  0.0000  0.0006  0.0008 </r>
       </set>
       <set comment="band 60">
        <r>  0.0040  0.0000  0.0020  0.0001  0.0223  0.0051  0.1298  0.0154  0.0074 </r>
        <r>  0.0000  0.0003  0.0000  0.0001  0.0003  0.0019  0.0000  0.0006  0.0010 </r>
        <r>  0.0000  0.0003  0.0000  0.0001  0.0003  0.0019  0.0000  0.0006  0.0010 </r>
        <r>  0.0040  0.0000  0.0020  0.0001  0.0223  0.0051  0.1300  0.0154  0.0074 </r>
        <r>  0.0000  0.0000  0.0004  0.0000  0.0001  0.0000  0.0000  0.0000  0.0000 </r>
        <r>  0.0000  0.0000  0.0000  0.0000  0.0014  0.0712  0.0000  0.0238  0.0042 </r>
        <r>  0.0000  0.0000  0.0000  0.0000  0.0014  0.0713  0.0000  0.0237  0.0042 </r>
        <r>  0.0000  0.0000  0.0004  0.0000  0.0001  0.0000  0.0000  0.0000  0.0000 </r>
        <r>  0.0046  0.0000  0.0018  0.0000  0.0202  0.0046  0.1267  0.0137  0.0067 </r>
        <r>  0.0000  0.0004  0.0000  0.0001  0.0003  0.0017  0.0000  0.0006  0.0008 </r>
        <r>  0.0000  0.0004  0.0000  0.0001  0.0003  0.0017  0.0000  0.0006  0.0008 </r>
        <r>  0.0046  0.0000  0.0018  0.0000  0.0202  0.0046  0.1266  0.0138  0.0067 </r>
       </set>
       <set comment="band 61">
        <r>  0.0000  0.0000  0.0000  0.0000  0.0004  0.0262  0.0000  0.0087  0.0011 </r>
        <r>  0.0000  0.0001  0.0000  0.0000  0.0022  0.0856  0.0000  0.0285  0.0066 </r>
        <r>  0.0000  0.0001  0.0000  0.0000  0.0022  0.0856  0.0000  0.0285  0.0066 </r>
        <r>  0.0000  0.0000  0.0000  0.0000  0.0004  0.0262  0.0000  0.0087  0.0011 </r>
        <r>  0.0000  0.0000  0.0000  0.0000  0.0014  0.1247  0.0000  0.0416  0.0042 </r>
        <r>  0.0000  0.0000  0.0000  0.0000  0.0002  0.0084  0.0000  0.0028  0.0007 </r>
        <r>  0.0000  0.0000  0.0000  0.0000  0.0002  0.0084  0.0000  0.0028  0.0007 </r>
        <r>  0.0000  0.0000  0.0000  0.0000  0.0014  0.1246  0.0000  0.0415  0.0042 </r>
        <r>  0.0000  0.0000  0.0000  0.0000  0.0013  0.0000  0.0000  0.0000  0.0039 </r>
        <r>  0.0000  0.0001  0.0000  0.0000  0.0008  0.1027  0.0000  0.0342  0.0025 </r>
        <r>  0.0000  0.0001  0.0000  0.0000  0.0008  0.1027  0.0000  0.0342  0.0025 </r>
        <r>  0.0000  0.0000  0.0000  0.0000  0.0013  0.0000  0.0000  0.0000  0.0039 </r>
       </set>
       <set comment="band 62">
        <r>  0.0000  0.0001  0.0000  0.0000  0.0022  0.0856  0.0000  0.0285  0.0066 </r>
        <r>  0.0000  0.0000  0.0000  0.0000  0.0004  0.0262  0.0000  0.0087  0.0011 </r>
        <r>  0.0000  0.0000  0.0000  0.0000  0.0004  0.0262  0.0000  0.0087  0.0011 </r>
        <r>  0.0000  0.0001  0.0000  0.0000  0.0022  0.0856  0.0000  0.0285  0.0066 </r>
        <r>  0.0000  0.0000  0.0000  0.0000  0.0002  0.0084  0.0000  0.0028  0.0007 </r>
        <r>  0.0000  0.0000  0.0000  0.0000  0.0014  0.1246  0.0000  0.0415  0.0042 </r>
        <r>  0.0000  0.0000  0.0000  0.0000  0.0014  0.1246  0.0000  0.0415  0.0042 </r>
        <r>  0.0000  0.0000  0.0000  0.0000  0.0002  0.0084  0.0000  0.0028  0.0007 </r>
        <r>  0.0000  0.0001  0.0000  0.0000  0.0008  0.1028  0.0000  0.0343  0.0025 </r>
        <r>  0.0000  0.0000  0.0000  0.0000  0.0013  0.0000  0.0000  0.0000  0.0039 </r>
        <r>  0.0000  0.0000  0.0000  0.0000  0.0013  0.0000  0.0000  0.0000  0.0039 </r>
        <r>  0.0000  0.0001  0.0000  0.0000  0.0008  0.1028  0.0000  0.0343  0.0025 </r>
       </set>
       <set comment="band 63">
        <r>  0.0000  0.0000  0.0000  0.0000  0.0009  0.0082  0.0000  0.0027  0.0028 </r>
        <r>  0.0017  0.0000  0.0008  0.0000  0.0292  0.0058  0.0349  0.0174  0.0097 </r>
        <r>  0.0017  0.0000  0.0008  0.0000  0.0291  0.0058  0.0349  0.0174  0.0097 </r>
        <r>  0.0000  0.0000  0.0000  0.0000  0.0009  0.0082  0.0000  0.0027  0.0028 </r>
        <r>  0.0000  0.0000  0.0000  0.0000  0.0000  0.0000  0.0000  0.0000  0.0000 </r>
        <r>  0.0001  0.0000  0.0000  0.0000  0.0859  0.0031  0.1336  0.0092  0.0286 </r>
        <r>  0.0001  0.0000  0.0000  0.0000  0.0859  0.0031  0.1336  0.0092  0.0287 </r>
        <r>  0.0000  0.0000  0.0000  0.0000  0.0000  0.0000  0.0000  0.0000  0.0000 </r>
        <r>  0.0000  0.0000  0.0000  0.0000  0.0008  0.0083  0.0000  0.0028  0.0024 </r>
        <r>  0.0019  0.0000  0.0007  0.0000  0.0276  0.0053  0.0371  0.0159  0.0092 </r>
        <r>  0.0019  0.0000  0.0007  0.0000  0.0276  0.0053  0.0371  0.0159  0.0092 </r>
        <r>  0.0000  0.0000  0.0000  0.0000  0.0008  0.0083  0.0000  0.0028  0.0024 </r>
       </set>
       <set comment="band 64">
        <r>  0.0017  0.0000  0.0008  0.0000  0.0291  0.0058  0.0349  0.0174  0.0097 </r>
        <r>  0.0000  0.0000  0.0000  0.0000  0.0009  0.0082  0.0000  0.0027  0.0028 </r>
        <r>  0.0000  0.0000  0.0000  0.0000  0.0009  0.0081  0.0000  0.0027  0.0028 </r>
        <r>  0.0017  0.0000  0.0008  0.0000  0.0291  0.0058  0.0349  0.0174  0.0097 </r>
        <r>  0.0001  0.0000  0.0000  0.0000  0.0859  0.0031  0.1336  0.0092  0.0286 </r>
        <r>  0.0000  0.0000  0.0000  0.0000  0.0000  0.0000  0.0000  0.0000  0.0000 </r>
        <r>  0.0000  0.0000  0.0000  0.0000  0.0000  0.0000  0.0000  0.0000  0.0000 </r>
        <r>  0.0001  0.0000  0.0000  0.0000  0.0859  0.0031  0.1336  0.0092  0.0286 </r>
        <r>  0.0019  0.0000  0.0007  0.0000  0.0276  0.0053  0.0372  0.0159  0.0092 </r>
        <r>  0.0000  0.0000  0.0000  0.0000  0.0008  0.0082  0.0000  0.0028  0.0024 </r>
        <r>  0.0000  0.0000  0.0000  0.0000  0.0008  0.0083  0.0000  0.0028  0.0024 </r>
        <r>  0.0019  0.0000  0.0007  0.0000  0.0276  0.0053  0.0371  0.0159  0.0092 </r>
       </set>
       <set comment="band 65">
        <r>  0.0158  0.0003  0.0126  0.0010  0.0000  0.0060  0.0108  0.0180  0.0000 </r>
        <r>  0.0108  0.0004  0.0082  0.0012  0.0010  0.0092  0.0083  0.0275  0.0003 </r>
        <r>  0.0108  0.0004  0.0082  0.0012  0.0010  0.0092  0.0083  0.0275  0.0003 </r>
        <r>  0.0158  0.0003  0.0126  0.0010  0.0000  0.0060  0.0109  0.0180  0.0000 </r>
        <r>  0.0002  0.0024  0.0001  0.0072  0.0000  0.0000  0.0001  0.0000  0.0000 </r>
        <r>  0.0488  0.0000  0.0001  0.0000  0.0000  0.0012  0.0557  0.0037  0.0000 </r>
        <r>  0.0488  0.0000  0.0001  0.0000  0.0000  0.0012  0.0557  0.0037  0.0000 </r>
        <r>  0.0002  0.0024  0.0001  0.0072  0.0000  0.0000  0.0002  0.0000  0.0000 </r>
        <r>  0.0189  0.0002  0.0149  0.0007  0.0001  0.0044  0.0142  0.0131  0.0000 </r>
        <r>  0.0079  0.0005  0.0056  0.0015  0.0009  0.0107  0.0063  0.0321  0.0003 </r>
        <r>  0.0079  0.0005  0.0056  0.0015  0.0009  0.0107  0.0063  0.0321  0.0003 </r>
        <r>  0.0188  0.0002  0.0149  0.0007  0.0001  0.0044  0.0142  0.0131  0.0000 </r>
       </set>
       <set comment="band 66">
        <r>  0.0108  0.0004  0.0082  0.0012  0.0010  0.0092  0.0083  0.0275  0.0003 </r>
        <r>  0.0158  0.0003  0.0126  0.0010  0.0000  0.0060  0.0108  0.0180  0.0000 </r>
        <r>  0.0158  0.0003  0.0126  0.0010  0.0000  0.0060  0.0108  0.0180  0.0000 </r>
        <r>  0.0109  0.0004  0.0082  0.0012  0.0010  0.0092  0.0083  0.0275  0.0003 </r>
        <r>  0.0488  0.0000  0.0001  0.0000  0.0000  0.0012  0.0557  0.0037  0.0000 </r>
        <r>  0.0002  0.0024  0.0001  0.0072  0.0000  0.0000  0.0002  0.0000  0.0000 </r>
        <r>  0.0002  0.0024  0.0001  0.0072  0.0000  0.0000  0.0001  0.0000  0.0000 </r>
        <r>  0.0487  0.0000  0.0001  0.0000  0.0000  0.0012  0.0557  0.0037  0.0000 </r>
        <r>  0.0079  0.0005  0.0056  0.0015  0.0009  0.0107  0.0063  0.0321  0.0003 </r>
        <r>  0.0188  0.0002  0.0149  0.0007  0.0001  0.0044  0.0142  0.0131  0.0000 </r>
        <r>  0.0188  0.0002  0.0149  0.0007  0.0001  0.0044  0.0142  0.0131  0.0000 </r>
        <r>  0.0079  0.0005  0.0056  0.0015  0.0009  0.0107  0.0063  0.0321  0.0003 </r>
       </set>
       <set comment="band 67">
        <r>  0.0000  0.0117  0.0000  0.0039  0.0000  0.0029  0.0000  0.0010  0.0000 </r>
        <r>  0.0207  0.0000  0.0015  0.0000  0.0608  0.0001  0.0179  0.0002  0.0203 </r>
        <r>  0.0207  0.0000  0.0015  0.0000  0.0608  0.0001  0.0179  0.0002  0.0203 </r>
        <r>  0.0000  0.0117  0.0000  0.0039  0.0000  0.0029  0.0000  0.0010  0.0000 </r>
        <r>  0.0000  0.0217  0.0000  0.0072  0.0000  0.0000  0.0000  0.0000  0.0000 </r>
        <r>  0.0409  0.0000  0.0000  0.0000  0.0831  0.0000  0.0143  0.0000  0.0277 </r>
        <r>  0.0409  0.0000  0.0000  0.0000  0.0831  0.0000  0.0143  0.0000  0.0277 </r>
        <r>  0.0000  0.0217  0.0000  0.0072  0.0000  0.0000  0.0000  0.0000  0.0000 </r>
        <r>  0.0000  0.0098  0.0000  0.0033  0.0000  0.0028  0.0000  0.0009  0.0000 </r>
        <r>  0.0172  0.0000  0.0016  0.0000  0.0545  0.0001  0.0181  0.0003  0.0182 </r>
        <r>  0.0172  0.0000  0.0016  0.0000  0.0545  0.0001  0.0181  0.0003  0.0182 </r>
        <r>  0.0000  0.0098  0.0000  0.0033  0.0000  0.0028  0.0000  0.0009  0.0000 </r>
       </set>
       <set comment="band 68">
        <r>  0.0207  0.0000  0.0015  0.0000  0.0608  0.0001  0.0179  0.0003  0.0203 </r>
        <r>  0.0000  0.0117  0.0000  0.0039  0.0000  0.0029  0.0000  0.0010  0.0000 </r>
        <r>  0.0000  0.0117  0.0000  0.0039  0.0000  0.0029  0.0000  0.0010  0.0000 </r>
        <r>  0.0207  0.0000  0.0015  0.0000  0.0608  0.0001  0.0179  0.0002  0.0203 </r>
        <r>  0.0409  0.0000  0.0000  0.0000  0.0831  0.0000  0.0143  0.0000  0.0277 </r>
        <r>  0.0000  0.0217  0.0000  0.0072  0.0000  0.0000  0.0000  0.0000  0.0000 </r>
        <r>  0.0000  0.0217  0.0000  0.0072  0.0000  0.0000  0.0000  0.0000  0.0000 </r>
        <r>  0.0409  0.0000  0.0000  0.0000  0.0831  0.0000  0.0143  0.0000  0.0277 </r>
        <r>  0.0171  0.0000  0.0016  0.0000  0.0545  0.0001  0.0181  0.0003  0.0182 </r>
        <r>  0.0000  0.0098  0.0000  0.0033  0.0000  0.0028  0.0000  0.0009  0.0000 </r>
        <r>  0.0000  0.0098  0.0000  0.0033  0.0000  0.0028  0.0000  0.0009  0.0000 </r>
        <r>  0.0172  0.0000  0.0016  0.0000  0.0545  0.0001  0.0181  0.0003  0.0182 </r>
       </set>
       <set comment="band 69">
        <r>  0.0000  0.0311  0.0000  0.0104  0.0001  0.0000  0.0000  0.0000  0.0004 </r>
        <r>  0.0451  0.0000  0.0009  0.0001  0.0689  0.0004  0.0010  0.0012  0.0230 </r>
        <r>  0.0451  0.0000  0.0009  0.0001  0.0689  0.0004  0.0010  0.0012  0.0230 </r>
        <r>  0.0000  0.0311  0.0000  0.0104  0.0001  0.0000  0.0000  0.0000  0.0004 </r>
        <r>  0.0000  0.0000  0.0000  0.0000  0.0000  0.0186  0.0000  0.0062  0.0000 </r>
        <r>  0.0000  0.0000  0.0137  0.0001  0.0000  0.0000  0.0000  0.0000  0.0000 </r>
        <r>  0.0000  0.0000  0.0137  0.0001  0.0000  0.0000  0.0000  0.0000  0.0000 </r>
        <r>  0.0000  0.0000  0.0000  0.0000  0.0000  0.0186  0.0000  0.0062  0.0000 </r>
        <r>  0.0000  0.0333  0.0000  0.0111  0.0001  0.0000  0.0000  0.0000  0.0004 </r>
        <r>  0.0492  0.0000  0.0007  0.0001  0.0772  0.0003  0.0016  0.0010  0.0257 </r>
        <r>  0.0492  0.0000  0.0007  0.0001  0.0772  0.0003  0.0016  0.0010  0.0257 </r>
        <r>  0.0000  0.0333  0.0000  0.0111  0.0001  0.0000  0.0000  0.0000  0.0004 </r>
       </set>
       <set comment="band 70">
        <r>  0.0451  0.0000  0.0009  0.0001  0.0688  0.0004  0.0010  0.0012  0.0229 </r>
        <r>  0.0000  0.0311  0.0000  0.0104  0.0001  0.0000  0.0000  0.0000  0.0004 </r>
        <r>  0.0000  0.0311  0.0000  0.0104  0.0001  0.0000  0.0000  0.0000  0.0004 </r>
        <r>  0.0451  0.0000  0.0009  0.0001  0.0689  0.0004  0.0010  0.0012  0.0229 </r>
        <r>  0.0000  0.0000  0.0137  0.0001  0.0000  0.0000  0.0000  0.0000  0.0000 </r>
        <r>  0.0000  0.0000  0.0000  0.0000  0.0000  0.0186  0.0000  0.0062  0.0000 </r>
        <r>  0.0000  0.0000  0.0000  0.0000  0.0000  0.0186  0.0000  0.0062  0.0000 </r>
        <r>  0.0000  0.0000  0.0137  0.0001  0.0000  0.0000  0.0000  0.0000  0.0000 </r>
        <r>  0.0492  0.0000  0.0007  0.0001  0.0772  0.0003  0.0016  0.0010  0.0258 </r>
        <r>  0.0000  0.0333  0.0000  0.0111  0.0001  0.0000  0.0000  0.0000  0.0004 </r>
        <r>  0.0000  0.0333  0.0000  0.0111  0.0001  0.0000  0.0000  0.0000  0.0004 </r>
        <r>  0.0492  0.0000  0.0007  0.0001  0.0772  0.0003  0.0016  0.0010  0.0257 </r>
       </set>
       <set comment="band 71">
        <r>  0.0001  0.0000  0.0241  0.0000  0.0002  0.0024  0.0005  0.0071  0.0001 </r>
        <r>  0.0005  0.0001  0.0254  0.0002  0.0002  0.0060  0.0004  0.0180  0.0001 </r>
        <r>  0.0005  0.0001  0.0254  0.0002  0.0002  0.0060  0.0004  0.0180  0.0001 </r>
        <r>  0.0001  0.0000  0.0241  0.0000  0.0002  0.0023  0.0005  0.0071  0.0001 </r>
        <r>  0.0001  0.0001  0.0462  0.0002  0.0002  0.0009  0.0000  0.0028  0.0001 </r>
        <r>  0.0016  0.0000  0.0054  0.0001  0.0014  0.0086  0.0000  0.0258  0.0005 </r>
        <r>  0.0016  0.0000  0.0054  0.0001  0.0014  0.0086  0.0000  0.0258  0.0005 </r>
        <r>  0.0001  0.0001  0.0462  0.0002  0.0002  0.0009  0.0000  0.0028  0.0001 </r>
        <r>  0.0004  0.0000  0.0006  0.0001  0.0004  0.0073  0.0000  0.0219  0.0001 </r>
        <r>  0.0001  0.0000  0.0501  0.0001  0.0000  0.0009  0.0007  0.0026  0.0000 </r>
        <r>  0.0001  0.0000  0.0501  0.0001  0.0000  0.0009  0.0007  0.0026  0.0000 </r>
        <r>  0.0004  0.0000  0.0006  0.0001  0.0004  0.0073  0.0000  0.0219  0.0001 </r>
       </set>
       <set comment="band 72">
        <r>  0.0005  0.0001  0.0254  0.0002  0.0002  0.0060  0.0004  0.0180  0.0001 </r>
        <r>  0.0001  0.0000  0.0241  0.0000  0.0002  0.0023  0.0005  0.0071  0.0001 </r>
        <r>  0.0001  0.0000  0.0241  0.0000  0.0002  0.0024  0.0006  0.0070  0.0001 </r>
        <r>  0.0005  0.0001  0.0254  0.0002  0.0002  0.0060  0.0004  0.0180  0.0001 </r>
        <r>  0.0016  0.0000  0.0054  0.0001  0.0014  0.0086  0.0000  0.0258  0.0005 </r>
        <r>  0.0001  0.0001  0.0462  0.0002  0.0002  0.0009  0.0000  0.0028  0.0001 </r>
        <r>  0.0001  0.0001  0.0462  0.0002  0.0002  0.0009  0.0000  0.0028  0.0001 </r>
        <r>  0.0016  0.0000  0.0054  0.0001  0.0014  0.0086  0.0000  0.0258  0.0005 </r>
        <r>  0.0001  0.0000  0.0501  0.0001  0.0000  0.0009  0.0007  0.0026  0.0000 </r>
        <r>  0.0004  0.0000  0.0006  0.0001  0.0004  0.0073  0.0000  0.0219  0.0001 </r>
        <r>  0.0004  0.0000  0.0006  0.0001  0.0004  0.0073  0.0000  0.0219  0.0001 </r>
        <r>  0.0001  0.0000  0.0501  0.0001  0.0000  0.0009  0.0007  0.0026  0.0000 </r>
       </set>
      </set>
     </set>
    </set>
   </array>
  </projected>
 </calculation>
 <structure name="finalpos" >
  <crystal>
   <varray name="basis" >
    <v>       5.63719400       0.00000000       0.00000000 </v>
    <v>      -2.81859700       4.88195300       0.00000000 </v>
    <v>       0.00000000       0.00000000      34.52062200 </v>
   </varray>
   <i name="volume">    950.02533560 </i>
   <varray name="rec_basis" >
    <v>       0.17739322       0.10241803      -0.00000000 </v>
    <v>       0.00000000       0.20483606       0.00000000 </v>
    <v>       0.00000000      -0.00000000       0.02896819 </v>
   </varray>
  </crystal>
  <varray name="positions" >
   <v>       0.33333300       0.16666700       0.43333300 </v>
   <v>       0.33333300       0.66666700       0.43333300 </v>
   <v>       0.83333300       0.16666700       0.43333300 </v>
   <v>       0.83333300       0.66666700       0.43333300 </v>
   <v>       0.50000000       0.00000000       0.50000000 </v>
   <v>       0.50000000       0.50000000       0.50000000 </v>
   <v>       0.00000000       0.00000000       0.50000000 </v>
   <v>       0.00000000       0.50000000       0.50000000 </v>
   <v>       0.16666748       0.33333168       0.56836689 </v>
   <v>       0.16666565       0.83333418       0.56836441 </v>
   <v>       0.66666579       0.33333392       0.56836596 </v>
   <v>       0.66666795       0.83333233       0.56836000 </v>
  </varray>
  <varray name="selective"  type="logical" >
   <v type="logical" >  F  F  F </v>
   <v type="logical" >  F  F  F </v>
   <v type="logical" >  F  F  F </v>
   <v type="logical" >  F  F  F </v>
   <v type="logical" >  F  F  F </v>
   <v type="logical" >  F  F  F </v>
   <v type="logical" >  F  F  F </v>
   <v type="logical" >  F  F  F </v>
   <v type="logical" >  T  T  T </v>
   <v type="logical" >  T  T  T </v>
   <v type="logical" >  T  T  T </v>
   <v type="logical" >  T  T  T </v>
  </varray>
  <nose>
   <v>      -3.00000000       0.00000000       0.00010000       0.00010000 </v>
  </nose>
 </structure>
</modeling>
