 running on   16 total cores
 distrk:  each k-point on   16 cores,    1 groups
 distr:  one band on    4 cores,    4 groups
 vasp.6.2.0 18Jan21 (build Feb  1 2022 01:28:57) complex                         
 POSCAR found type information on POSCAR Pt
 POSCAR found :  1 types and      12 ions
 scaLAPACK will be used
 -----------------------------------------------------------------------------
|                                                                             |
|           W    W    AA    RRRRR   N    N  II  N    N   GGGG   !!!           |
|           W    W   A  A   R    R  NN   N  II  NN   N  G    G  !!!           |
|           W    W  A    A  R    R  N N  N  II  N N  N  G       !!!           |
|           W WW W  AAAAAA  RRRRR   N  N N  II  N  N N  G  GGG   !            |
|           WW  WW  A    A  R   R   N   NN  II  N   NN  G    G                |
|           W    W  A    A  R    R  N    N  II  N    N   GGGG   !!!           |
|                                                                             |
|     The real-space projection scheme for the treatment of the non-local     |
|     pseudopotentials has been switched on but on file POTCAR I have not     |
|     found any entries, signalling me that you have never performed a        |
|     real-space optimization of all non-local projectors! BE WARNED that     |
|     a calculation using the real-space projection scheme together with      |
|     non-local projectors which were not real-space optimized (according     |
|     to the plane-wave cutoff used in this calculation) might give more      |
|     or less inaccurate results. I hope you know what you are doing.         |
|                                                                             |
 -----------------------------------------------------------------------------

 -----------------------------------------------------------------------------
|                                                                             |
|               ----> ADVICE to this user running VASP <----                  |
|                                                                             |
|     You enforced a specific xc type in the INCAR file but a different       |
|     type was found in the POTCAR file.                                      |
|     I HOPE YOU KNOW WHAT YOU ARE DOING!                                     |
|                                                                             |
 -----------------------------------------------------------------------------

 LDA part: xc-table for Pade appr. of Perdew
 POSCAR, INCAR and KPOINTS ok, starting setup
 FFT: planning ...
 WAVECAR not read
 entering main loop
       N       E                     dE             d eps       ncg     rms          rms(c)
DAV:   1     0.853200617607E+03    0.85320E+03   -0.39895E+04   576   0.110E+03
DAV:   2     0.288617814100E+02   -0.82434E+03   -0.76956E+03   824   0.226E+02
DAV:   3    -0.630525033059E+02   -0.91914E+02   -0.86341E+02   688   0.768E+01
DAV:   4    -0.667443393165E+02   -0.36918E+01   -0.34637E+01   816   0.147E+01
DAV:   5    -0.668605172584E+02   -0.11618E+00   -0.11003E+00   752   0.241E+00    0.312E+01
DAV:   6    -0.646208565415E+02    0.22397E+01   -0.58491E+00   704   0.104E+01    0.261E+01
DAV:   7    -0.705324267853E+02   -0.59116E+01   -0.25546E+01   640   0.286E+01    0.243E+01
DAV:   8    -0.634568539389E+02    0.70756E+01   -0.33097E+01   624   0.259E+01    0.108E+01
DAV:   9    -0.646247911777E+02   -0.11679E+01   -0.52774E+00   688   0.108E+01    0.136E+01
DAV:  10    -0.641985638517E+02    0.42623E+00   -0.17555E+01   744   0.156E+01    0.104E+01
DAV:  11    -0.632253847783E+02    0.97318E+00   -0.61575E+00   648   0.106E+01    0.558E+00
DAV:  12    -0.631732588369E+02    0.52126E-01   -0.44048E-01   664   0.278E+00    0.448E+00
DAV:  13    -0.629908034111E+02    0.18246E+00   -0.17585E-01   648   0.240E+00    0.190E+00
DAV:  14    -0.629864621727E+02    0.43412E-02   -0.12225E-01   680   0.163E+00    0.186E+00
DAV:  15    -0.629767223058E+02    0.97399E-02   -0.47543E-02   640   0.679E-01    0.138E+00
DAV:  16    -0.629685587130E+02    0.81636E-02   -0.14282E-02   664   0.581E-01    0.144E+00
DAV:  17    -0.629591487944E+02    0.94099E-02   -0.87637E-03   656   0.534E-01    0.806E-01
DAV:  18    -0.629566434211E+02    0.25054E-02   -0.23645E-03   648   0.212E-01    0.505E-01
DAV:  19    -0.629551169147E+02    0.15265E-02   -0.15073E-03   576   0.191E-01    0.363E-01
DAV:  20    -0.629543655051E+02    0.75141E-03   -0.11455E-03   520   0.154E-01    0.287E-01
DAV:  21    -0.629539727242E+02    0.39278E-03   -0.13639E-03   504   0.189E-01    0.234E-01
DAV:  22    -0.629541104837E+02   -0.13776E-03   -0.99190E-04   624   0.167E-01    0.233E-01
DAV:  23    -0.629540423720E+02    0.68112E-04   -0.35834E-04   432   0.904E-02
   1 F= -.62954042E+02 E0= -.62927640E+02  d E =-.629540E+02
 curvature:   0.00 expect dE= 0.000E+00 dE for cont linesearch  0.000E+00
 trial: gam= 0.00000 g(F)=  0.889E-01 g(S)=  0.000E+00 ort = 0.000E+00 (trialstep = 0.100E+01)
 search vector abs. value=  0.889E-01
 bond charge predicted
       N       E                     dE             d eps       ncg     rms          rms(c)
DAV:   1    -0.629878007381E+02   -0.33690E-01   -0.25193E+01   576   0.149E+01    0.152E+00
DAV:   2    -0.631209980529E+02   -0.13320E+00   -0.66380E-01   640   0.394E+00    0.390E+00
DAV:   3    -0.631075854955E+02    0.13413E-01   -0.13226E+00   704   0.539E+00    0.232E+00
DAV:   4    -0.630412184466E+02    0.66367E-01   -0.84730E-01   688   0.439E+00    0.203E+00
DAV:   5    -0.630241806236E+02    0.17038E-01   -0.31419E-02   664   0.668E-01    0.155E+00
DAV:   6    -0.630071852112E+02    0.16995E-01   -0.30956E-02   632   0.100E+00    0.421E-01
DAV:   7    -0.630107074237E+02   -0.35222E-02   -0.10194E-02   664   0.438E-01    0.589E-01
DAV:   8    -0.630085197690E+02    0.21877E-02   -0.49348E-03   624   0.279E-01    0.406E-01
DAV:   9    -0.630066415987E+02    0.18782E-02   -0.48679E-03   632   0.331E-01    0.175E-01
DAV:  10    -0.630064765404E+02    0.16506E-03   -0.67966E-04   616   0.125E-01    0.170E-01
DAV:  11    -0.630064491104E+02    0.27430E-04   -0.52119E-05   304   0.297E-02
   2 F= -.63006449E+02 E0= -.62983127E+02  d E =-.524067E-01
 trial-energy change:   -0.052407  1 .order   -0.064078   -0.088933   -0.039224
 step:   1.7891(harm=  1.7891)  dis= 0.05868  next Energy=   -63.033595 (dE=-0.796E-01)
 bond charge predicted
       N       E                     dE             d eps       ncg     rms          rms(c)
DAV:   1    -0.629941378473E+02    0.12339E-01   -0.15638E+01   576   0.116E+01    0.115E+00
DAV:   2    -0.630623689054E+02   -0.68231E-01   -0.32238E-01   632   0.273E+00    0.309E+00
DAV:   3    -0.630359729359E+02    0.26396E-01   -0.34778E-01   680   0.305E+00    0.142E+00
DAV:   4    -0.630253104490E+02    0.10662E-01   -0.26539E-01   680   0.259E+00    0.142E+00
DAV:   5    -0.630143369754E+02    0.10973E-01   -0.25347E-02   632   0.681E-01    0.109E+00
DAV:   6    -0.630081972911E+02    0.61397E-02   -0.17466E-02   624   0.794E-01    0.439E-01
DAV:   7    -0.630098021849E+02   -0.16049E-02   -0.10236E-02   656   0.478E-01    0.456E-01
DAV:   8    -0.630083102858E+02    0.14919E-02   -0.31276E-03   600   0.240E-01    0.271E-01
DAV:   9    -0.630075011426E+02    0.80914E-03   -0.31607E-03   584   0.280E-01    0.826E-02
DAV:  10    -0.630074817951E+02    0.19347E-04   -0.26545E-04   408   0.646E-02
   3 F= -.63007482E+02 E0= -.62985196E+02  d E =-.534394E-01
 curvature:  -0.89 expect dE=-0.121E-03 dE for cont linesearch -0.121E-03
 trial: gam=-0.03740 g(F)=  0.135E-03 g(S)=  0.000E+00 ort = 0.346E-02 (trialstep = 0.116E+01)
 search vector abs. value=  0.458E-06
 reached required accuracy - stopping structural energy minimisation
