 vasp.6.2.0 18Jan21 (build Feb  1 2022 01:28:57) complex                         
 executed on             LinuxPGI date 2022.05.18  19:39:53
 running on   16 total cores
 distrk:  each k-point on   16 cores,    1 groups
 distr:  one band on NCORE=   4 cores,    4 groups


--------------------------------------------------------------------------------------------------------


 INCAR:
   ALGO = 38
   EDIFF = 0.0001
   EDIFFG = -0.03
   ENCUT = 420
   GGA = RP
   IBRION = 2
   ISIF = 0
   ISMEAR = 0
   ISPIN = 1
   ISYM = 0
   LASPH = False
   LORBIT = 11
   LREAL = False
   LVTOT = False
   LWAVE = False
   NCORE = 4
   NELM = 60
   NELMIN = 4
   NSW = 0
   PREC = Normal
   SIGMA = 0.05
   SYMPREC = 1e-05

 POTCAR:    PAW_PBE Pt 04Feb2005                  
 POTCAR:    PAW_PBE Pt 04Feb2005                  
   SHA256 =  3ed90460adef76debcff1cfb73ee1349b515b1a3db03439735b44de3a8db7dc8 Pt/POTCAR             
   COPYR  = (c) Copyright 04Feb2005 Georg Kresse                                                    
   COPYR  = This file is part of the software VASP. Any use, copying, and all other rights are regul
   COPYR  = If you do not have a valid VASP license, you may not use, copy or distribute this file. 
   VRHFIN =Pt: s1d9                                                                                 
   LEXCH  = PE                                                                                      
   EATOM  =   729.1176 eV,   53.5886 Ry                                                             
                                                                                                    
   TITEL  = PAW_PBE Pt 04Feb2005                                                                    
   LULTRA =        F    use ultrasoft PP ?                                                          
   IUNSCR =        1    unscreen: 0-lin 1-nonlin 2-no                                               
   RPACOR =    2.330    partial core radius                                                         
   POMASS =  195.080; ZVAL   =   10.000    mass and valenz                                          
   RCORE  =    2.600    outmost cutoff radius                                                       
   RWIGS  =    2.750; RWIGS  =    1.455    wigner-seitz radius (au A)                               
   ENMAX  =  230.283; ENMIN  =  172.712 eV                                                          
   ICORE  =        3    local potential                                                             
   LCOR   =        T    correct aug charges                                                         
   LPAW   =        T    paw PP                                                                      
   EAUG   =  358.966                                                                                
   DEXC   =    0.000                                                                                
   RMAX   =    2.658    core radius for proj-oper                                                   
   RAUG   =    1.300    factor for augmentation sphere                                              
   RDEP   =    2.761    radius for radial grids                                                     
   RDEPT  =    2.203    core radius for aug-charge                                                  
                                                                                                    
   Atomic configuration                                                                             
   16 entries                                                                                       
     n  l   j            E        occ.                                                              
     1  0  0.50    -78401.1885   2.0000                                                             
     2  0  0.50    -13770.7750   2.0000                                                             
     2  1  1.50    -11931.0468   6.0000                                                             
     3  0  0.50     -3234.7234   2.0000                                                             
     3  1  1.50     -2699.2216   6.0000                                                             
     3  2  2.50     -2119.5714  10.0000                                                             
     4  0  0.50      -695.1528   2.0000                                                             
     4  1  1.50      -519.6034   6.0000                                                             
     4  2  2.50      -306.6786  10.0000                                                             
     4  3  3.50       -70.1041  14.0000                                                             
     5  0  0.50      -101.7747   2.0000                                                             
     5  1  1.50       -55.9873   6.0000                                                             
     5  2  2.50        -6.1423   9.0000                                                             
     6  0  0.50        -5.6573   1.0000                                                             
     6  1  1.50        -6.8029   0.0000                                                             
     5  3  2.50        -1.3606   0.0000                                                             
   Description                                                                                      
     l       E           TYP  RCUT    TYP  RCUT                                                     
     2     -6.1423404     23  2.500                                                                 
     2     -7.5029230     23  2.500                                                                 
     0     -5.6573207     23  2.500                                                                 
     0      0.7416693     23  2.500                                                                 
     1     -2.7211652     23  2.600                                                                 
     1     20.4087390     23  2.600                                                                 
     3     -1.3605826     23  2.500                                                                 
  local pseudopotential read in
  partial core-charges read in
  partial kinetic energy density read in
  atomic valenz-charges read in
  non local Contribution for L=            2  read in
    real space projection operators read in
  non local Contribution for L=            2  read in
    real space projection operators read in
  non local Contribution for L=            0  read in
    real space projection operators read in
  non local Contribution for L=            0  read in
    real space projection operators read in
  non local Contribution for L=            1  read in
    real space projection operators read in
  non local Contribution for L=            1  read in
    real space projection operators read in
    PAW grid and wavefunctions read in
 
   number of l-projection  operators is LMAX  =            6
   number of lm-projection operators is LMMAX =           18
 
 -----------------------------------------------------------------------------
|                                                                             |
|               ----> ADVICE to this user running VASP <----                  |
|                                                                             |
|     You enforced a specific xc type in the INCAR file but a different       |
|     type was found in the POTCAR file.                                      |
|     I HOPE YOU KNOW WHAT YOU ARE DOING!                                     |
|                                                                             |
 -----------------------------------------------------------------------------

  PAW_PBE Pt 04Feb2005                  :
 energy of atom  1       EATOM= -729.1176
 kinetic energy error for atom=    0.0052 (will be added to EATOM!!)
 
 
 POSCAR: Pt1
  positions in direct lattice
  velocities in cartesian coordinates
 exchange correlation table for  LEXCH =        9
   RHO(1)=    0.500       N(1)  =     2000
   RHO(2)=  100.500       N(2)  =     4000
 


--------------------------------------------------------------------------------------------------------


 ion  position               nearest neighbor table
   1  0.000  0.000  0.000-
 

IMPORTANT INFORMATION: All symmetrisations will be switched off!
NOSYMM: (Re-)initialisation of all symmetry stuff for point group C_1.


----------------------------------------------------------------------------------------

                                     Primitive cell                                     

  volume of cell :      11.6097

  direct lattice vectors                    reciprocal lattice vectors
     2.201115000  0.000004000  1.270827000     0.454315965 -0.160625784 -0.000000820
     0.733710000  2.075228000  1.270827000    -0.000000438  0.481875382 -0.000000758
     0.000006000  0.000004000  2.541634000    -0.227159551 -0.160626063  0.393448469

  length of vectors
     2.541635007  2.541633900  2.541634000     0.481875127  0.481875382  0.481875390

  position of ions in fractional coordinates (direct lattice)
     0.000000000  0.000000000  0.000000000

  ion indices of the primitive-cell ions
   primitive index   ion index
                 1           1

----------------------------------------------------------------------------------------

 
 -----------------------------------------------------------------------------
|                                                                             |
|           W    W    AA    RRRRR   N    N  II  N    N   GGGG   !!!           |
|           W    W   A  A   R    R  NN   N  II  NN   N  G    G  !!!           |
|           W    W  A    A  R    R  N N  N  II  N N  N  G       !!!           |
|           W WW W  AAAAAA  RRRRR   N  N N  II  N  N N  G  GGG   !            |
|           WW  WW  A    A  R   R   N   NN  II  N   NN  G    G                |
|           W    W  A    A  R    R  N    N  II  N    N   GGGG   !!!           |
|                                                                             |
|     The requested file  could not be found or opened for reading            |
|     k-point information. Automatic k-point generation is used as a          |
|     fallback, which may lead to unwanted results.                           |
|                                                                             |
 -----------------------------------------------------------------------------

 

Automatic generation of k-mesh.
 Grid dimensions derived from KSPACING:
 generate k-points for:    7    7    7

 Generating k-lattice:

  Cartesian coordinates                     Fractional coordinates (reciprocal lattice)
     0.064902281 -0.022946541 -0.000000117     0.142857143 -0.000000000 -0.000000000
    -0.000000063  0.068839340 -0.000000108     0.000000000  0.142857143  0.000000000
    -0.032451364 -0.022946580  0.056206924    -0.000000000  0.000000000  0.142857143

  Length of vectors
     0.068839304  0.068839340  0.068839341

  Shift w.r.t. Gamma in fractional coordinates (k-lattice)
     0.000000000  0.000000000  0.000000000

 
 Subroutine IBZKPT returns following result:
 ===========================================
 
 Found    172 irreducible k-points:
 
 Following reciprocal coordinates:
            Coordinates               Weight
  0.000000  0.000000  0.000000      1.000000
  0.142857  0.000000  0.000000      2.000000
  0.000000  0.142857  0.000000      2.000000
  0.000000  0.000000  0.142857      2.000000
  0.142857  0.142857  0.142857      2.000000
  0.285714  0.000000  0.000000      2.000000
  0.000000  0.285714  0.000000      2.000000
  0.000000  0.000000  0.285714      2.000000
  0.285714  0.285714  0.285714      2.000000
  0.428571  0.000000  0.000000      2.000000
  0.000000  0.428571  0.000000      2.000000
  0.000000  0.000000  0.428571      2.000000
  0.428571  0.428571  0.428571      2.000000
  0.142857  0.142857  0.000000      2.000000
  0.000000  0.142857  0.142857      2.000000
  0.142857  0.000000  0.142857      2.000000
  0.285714  0.142857  0.000000      2.000000
  0.000000  0.285714  0.142857      2.000000
  0.142857  0.000000  0.285714      2.000000
  0.142857  0.142857 -0.142857      2.000000
  0.285714  0.142857  0.285714      2.000000
  0.142857  0.285714  0.000000      2.000000
  0.142857 -0.142857 -0.142857      2.000000
  0.285714  0.285714  0.142857      2.000000
  0.000000  0.142857  0.285714      2.000000
 -0.142857  0.142857 -0.142857      2.000000
  0.142857  0.285714  0.285714      2.000000
  0.285714  0.000000  0.142857      2.000000
  0.428571  0.142857  0.000000      2.000000
  0.000000  0.428571  0.142857      2.000000
  0.142857  0.000000  0.428571      2.000000
  0.142857  0.142857 -0.285714      2.000000
  0.428571  0.285714  0.428571      2.000000
  0.142857  0.428571  0.000000      2.000000
  0.285714 -0.142857 -0.142857      2.000000
  0.428571  0.428571  0.285714      2.000000
  0.000000  0.142857  0.428571      2.000000
 -0.142857  0.285714 -0.142857      2.000000
  0.285714  0.428571  0.428571      2.000000
  0.428571  0.000000  0.142857      2.000000
 -0.428571  0.142857  0.000000      2.000000
  0.000000 -0.428571  0.142857      2.000000
  0.142857  0.000000 -0.428571      2.000000
  0.142857  0.142857 -0.428571      2.000000
 -0.428571  0.428571 -0.428571      2.000000
  0.142857 -0.428571  0.000000      2.000000
  0.428571 -0.142857 -0.142857      2.000000
 -0.428571 -0.428571  0.428571      2.000000
  0.000000  0.142857 -0.428571      2.000000
 -0.142857  0.428571 -0.142857      2.000000
  0.428571 -0.428571 -0.428571      2.000000
 -0.428571  0.000000  0.142857      2.000000
 -0.285714  0.142857  0.000000      2.000000
  0.000000 -0.285714  0.142857      2.000000
  0.142857  0.000000 -0.285714      2.000000
  0.142857  0.142857  0.428571      2.000000
 -0.285714 -0.428571 -0.285714      2.000000
  0.142857 -0.285714  0.000000      2.000000
 -0.428571 -0.142857 -0.142857      2.000000
 -0.285714 -0.285714 -0.428571      2.000000
  0.000000  0.142857 -0.285714      2.000000
 -0.142857 -0.428571 -0.142857      2.000000
 -0.428571 -0.285714 -0.285714      2.000000
 -0.285714  0.000000  0.142857      2.000000
 -0.142857  0.142857  0.000000      2.000000
  0.000000 -0.142857  0.142857      2.000000
  0.142857  0.000000 -0.142857      2.000000
  0.142857  0.142857  0.285714      2.000000
 -0.142857 -0.285714 -0.142857      2.000000
 -0.285714 -0.142857 -0.142857      2.000000
  0.285714  0.285714  0.000000      2.000000
  0.000000  0.285714  0.285714      2.000000
  0.285714  0.000000  0.285714      2.000000
  0.428571  0.285714  0.000000      2.000000
  0.000000  0.428571  0.285714      2.000000
  0.285714  0.000000  0.428571      2.000000
  0.285714  0.285714 -0.142857      2.000000
  0.428571  0.142857  0.428571      2.000000
  0.285714  0.428571  0.000000      2.000000
  0.142857 -0.285714 -0.285714      2.000000
  0.428571  0.428571  0.142857      2.000000
  0.000000  0.285714  0.428571      2.000000
 -0.285714  0.142857 -0.285714      2.000000
  0.142857  0.428571  0.428571      2.000000
  0.428571  0.000000  0.285714      2.000000
 -0.428571  0.285714  0.000000      2.000000
  0.000000 -0.428571  0.285714      2.000000
  0.285714  0.000000 -0.428571      2.000000
  0.285714  0.285714 -0.285714      2.000000
 -0.428571  0.285714 -0.428571      2.000000
  0.285714 -0.428571  0.000000      2.000000
  0.285714 -0.285714 -0.285714      2.000000
 -0.428571 -0.428571  0.285714      2.000000
  0.000000  0.285714 -0.428571      2.000000
 -0.285714  0.285714 -0.285714      2.000000
  0.285714 -0.428571 -0.428571      2.000000
 -0.428571  0.000000  0.285714      2.000000
 -0.285714  0.285714  0.000000      2.000000
  0.000000 -0.285714  0.285714      2.000000
  0.285714  0.000000 -0.285714      2.000000
  0.285714  0.285714 -0.428571      2.000000
 -0.285714  0.428571 -0.285714      2.000000
  0.428571 -0.285714 -0.285714      2.000000
  0.428571  0.428571  0.000000      2.000000
  0.000000  0.428571  0.428571      2.000000
  0.428571  0.000000  0.428571      2.000000
 -0.428571  0.428571  0.000000      2.000000
  0.000000 -0.428571  0.428571      2.000000
  0.428571  0.000000 -0.428571      2.000000
  0.428571  0.428571 -0.142857      2.000000
 -0.428571  0.142857 -0.428571      2.000000
  0.142857 -0.428571 -0.428571      2.000000
  0.428571  0.285714  0.142857      2.000000
  0.142857  0.428571  0.285714      2.000000
  0.285714  0.142857  0.428571      2.000000
  0.285714  0.142857 -0.142857      2.000000
  0.428571  0.142857  0.285714      2.000000
  0.142857 -0.285714 -0.142857      2.000000
  0.142857  0.285714 -0.142857      2.000000
  0.142857 -0.142857 -0.285714      2.000000
  0.285714  0.428571  0.142857      2.000000
 -0.142857  0.142857 -0.285714      2.000000
 -0.285714  0.142857 -0.142857      2.000000
  0.142857  0.285714  0.428571      2.000000
 -0.428571  0.285714  0.142857      2.000000
  0.142857 -0.428571  0.285714      2.000000
  0.285714  0.142857 -0.428571      2.000000
  0.285714  0.142857 -0.285714      2.000000
 -0.428571  0.285714  0.428571      2.000000
  0.142857 -0.428571 -0.142857      2.000000
  0.142857  0.428571 -0.142857      2.000000
  0.285714 -0.142857 -0.285714      2.000000
 -0.428571 -0.285714  0.428571      2.000000
  0.428571 -0.428571  0.285714      2.000000
 -0.142857  0.142857 -0.428571      2.000000
 -0.285714  0.285714  0.142857      2.000000
 -0.142857  0.142857  0.428571      2.000000
 -0.285714  0.285714 -0.142857      2.000000
  0.428571 -0.428571 -0.285714      2.000000
  0.285714  0.428571 -0.428571      2.000000
 -0.428571 -0.142857  0.142857      2.000000
  0.142857 -0.285714  0.285714      2.000000
  0.428571 -0.142857  0.142857      2.000000
 -0.142857 -0.285714  0.285714      2.000000
 -0.285714  0.428571 -0.428571      2.000000
  0.428571 -0.142857 -0.285714      2.000000
 -0.285714  0.428571 -0.142857      2.000000
 -0.142857 -0.285714  0.428571      2.000000
 -0.428571  0.428571  0.142857      2.000000
  0.142857 -0.428571  0.428571      2.000000
  0.428571  0.142857 -0.428571      2.000000
  0.428571  0.285714 -0.142857      2.000000
 -0.428571  0.142857  0.428571      2.000000
  0.142857 -0.428571 -0.285714      2.000000
  0.285714  0.428571 -0.142857      2.000000
  0.142857 -0.285714 -0.428571      2.000000
  0.428571 -0.428571  0.142857      2.000000
 -0.285714  0.142857 -0.428571      2.000000
 -0.428571  0.142857 -0.285714      2.000000
  0.142857  0.428571 -0.428571      2.000000
 -0.285714  0.428571  0.142857      2.000000
  0.142857 -0.285714  0.428571      2.000000
  0.428571  0.142857 -0.285714      2.000000
  0.428571  0.285714 -0.285714      2.000000
 -0.285714  0.285714 -0.428571      2.000000
  0.142857  0.428571 -0.285714      2.000000
  0.285714 -0.285714 -0.428571      2.000000
  0.428571 -0.285714  0.285714      2.000000
 -0.285714  0.142857  0.428571      2.000000
 -0.285714  0.428571  0.285714      2.000000
  0.285714  0.428571 -0.285714      2.000000
  0.428571 -0.285714  0.142857      2.000000
 
 Following cartesian coordinates:
            Coordinates               Weight
  0.000000  0.000000  0.000000      1.000000
  0.064902 -0.022947 -0.000000      2.000000
 -0.000000  0.068839 -0.000000      2.000000
 -0.032451 -0.022947  0.056207      2.000000
  0.032451  0.022946  0.056207      2.000000
  0.129805 -0.045893 -0.000000      2.000000
 -0.000000  0.137679 -0.000000      2.000000
 -0.064903 -0.045893  0.112414      2.000000
  0.064902  0.045892  0.112413      2.000000
  0.194707 -0.068840 -0.000000      2.000000
 -0.000000  0.206518 -0.000000      2.000000
 -0.097354 -0.068840  0.168621      2.000000
  0.097353  0.068839  0.168620      2.000000
  0.064902  0.045893 -0.000000      2.000000
 -0.032451  0.045893  0.056207      2.000000
  0.032451 -0.045893  0.056207      2.000000
  0.129804  0.022946 -0.000000      2.000000
 -0.032451  0.114732  0.056207      2.000000
 -0.000000 -0.068840  0.112414      2.000000
  0.097354  0.068839 -0.056207      2.000000
  0.064902 -0.022947  0.112414      2.000000
  0.064902  0.114732 -0.000000      2.000000
  0.097354 -0.068839 -0.056207      2.000000
  0.097353  0.068839  0.056206      2.000000
 -0.064903  0.022946  0.112414      2.000000
 -0.032451  0.114732 -0.056207      2.000000
 -0.000001  0.068839  0.112414      2.000000
  0.097353 -0.068840  0.056207      2.000000
  0.194707 -0.000000 -0.000000      2.000000
 -0.032452  0.183571  0.056207      2.000000
 -0.032452 -0.091786  0.168621      2.000000
  0.129805  0.091786 -0.112414      2.000000
  0.097353 -0.000001  0.168620      2.000000
  0.064902  0.183571 -0.000000      2.000000
  0.162256 -0.091786 -0.056207      2.000000
  0.129804  0.091785  0.112413      2.000000
 -0.097354 -0.000000  0.168621      2.000000
 -0.032451  0.183572 -0.056207      2.000000
  0.032450  0.091785  0.168620      2.000000
  0.162255 -0.091786  0.056207      2.000000
 -0.194707  0.137679  0.000000      2.000000
 -0.032451 -0.229465  0.056207      2.000000
  0.162256  0.045893 -0.168621      2.000000
  0.162256  0.114733 -0.168621      2.000000
 -0.097353  0.344197 -0.168621      2.000000
  0.064902 -0.229465  0.000000      2.000000
  0.227158 -0.114732 -0.056207      2.000000
 -0.292061 -0.206518  0.168621      2.000000
  0.097354  0.137679 -0.168621      2.000000
 -0.032451  0.252411 -0.056207      2.000000
  0.292061 -0.206518 -0.168621      2.000000
 -0.227158  0.045893  0.056207      2.000000
 -0.129805  0.114732  0.000000      2.000000
 -0.032451 -0.160625  0.056207      2.000000
  0.129805  0.022947 -0.112414      2.000000
 -0.032452 -0.022947  0.168621      2.000000
 -0.064902 -0.114732 -0.112413      2.000000
  0.064902 -0.160625  0.000000      2.000000
 -0.162255  0.022947 -0.056206      2.000000
 -0.032450 -0.022946 -0.168620      2.000000
  0.064903  0.114733 -0.112414      2.000000
 -0.032451 -0.160625 -0.056206      2.000000
 -0.129804 -0.022946 -0.112413      2.000000
 -0.162256  0.022947  0.056207      2.000000
 -0.064902  0.091786  0.000000      2.000000
 -0.032451 -0.091786  0.056207      2.000000
  0.097354  0.000000 -0.056207      2.000000
 -0.000001 -0.000000  0.112414      2.000000
 -0.032451 -0.091786 -0.056207      2.000000
 -0.097353  0.000000 -0.056207      2.000000
  0.129804  0.091786 -0.000000      2.000000
 -0.064903  0.091786  0.112414      2.000000
  0.064902 -0.091786  0.112414      2.000000
  0.194707  0.068839 -0.000001      2.000000
 -0.064903  0.160625  0.112414      2.000000
  0.032450 -0.114733  0.168621      2.000000
  0.162256  0.114732 -0.056207      2.000000
  0.097353 -0.068840  0.168620      2.000000
  0.129804  0.160625 -0.000001      2.000000
  0.129805 -0.114732 -0.112414      2.000000
  0.162255  0.114732  0.056206      2.000000
 -0.097354  0.068839  0.168621      2.000000
 -0.064902  0.160626 -0.112414      2.000000
 -0.032452  0.114732  0.168620      2.000000
  0.129804 -0.114733  0.112413      2.000000
 -0.194707  0.206518  0.000000      2.000000
 -0.064903 -0.252411  0.112414      2.000000
  0.227159  0.022947 -0.168621      2.000000
  0.194707  0.137679 -0.112414      2.000000
 -0.097353  0.275358 -0.168621      2.000000
  0.129805 -0.252411  0.000000      2.000000
  0.194707 -0.137679 -0.112414      2.000000
 -0.259609 -0.183572  0.112415      2.000000
  0.097354  0.206518 -0.168621      2.000000
 -0.064902  0.229465 -0.112414      2.000000
  0.227159 -0.183571 -0.168621      2.000000
 -0.259610  0.022946  0.112414      2.000000
 -0.129805  0.183572  0.000000      2.000000
 -0.064903 -0.183572  0.112414      2.000000
  0.194707  0.000000 -0.112414      2.000000
  0.227159  0.160625 -0.168621      2.000000
 -0.064902  0.298304 -0.112414      2.000000
  0.259610 -0.160625 -0.112414      2.000000
  0.194707  0.137678 -0.000001      2.000000
 -0.097354  0.137678  0.168620      2.000000
  0.097353 -0.137679  0.168620      2.000000
 -0.194707  0.275358  0.000000      2.000000
 -0.097354 -0.275358  0.168621      2.000000
  0.292061  0.000000 -0.168621      2.000000
  0.227158  0.160625 -0.056208      2.000000
 -0.097353  0.206519 -0.168621      2.000000
  0.162257 -0.160625 -0.168621      2.000000
  0.162255  0.045892  0.056206      2.000000
 -0.000001  0.137678  0.112413      2.000000
  0.032450 -0.045893  0.168620      2.000000
  0.162256  0.045893 -0.056207      2.000000
  0.129804 -0.045893  0.112413      2.000000
  0.097354 -0.137679 -0.056207      2.000000
  0.097354  0.137679 -0.056207      2.000000
  0.129805 -0.045893 -0.112414      2.000000
  0.097353  0.137678  0.056206      2.000000
  0.000000  0.137679 -0.112414      2.000000
 -0.097353  0.137679 -0.056207      2.000000
 -0.032452  0.045892  0.168620      2.000000
 -0.227158  0.183572  0.056207      2.000000
 -0.000000 -0.275358  0.112414      2.000000
  0.227159  0.091786 -0.168621      2.000000
  0.194707  0.068839 -0.112414      2.000000
 -0.292061  0.137679  0.168621      2.000000
  0.097354 -0.206518 -0.056207      2.000000
  0.097353  0.206518 -0.056207      2.000000
  0.194707 -0.068839 -0.112414      2.000000
 -0.292061 -0.137679  0.168621      2.000000
  0.129804 -0.321251  0.112414      2.000000
  0.032452  0.160626 -0.168621      2.000000
 -0.162256  0.160625  0.056207      2.000000
 -0.162256  0.022946  0.168621      2.000000
 -0.097353  0.206518 -0.056207      2.000000
  0.259610 -0.229464 -0.112414      2.000000
  0.227158  0.229465 -0.168621      2.000000
 -0.227158 -0.022946  0.056207      2.000000
 -0.000000 -0.206518  0.112414      2.000000
  0.162256 -0.160626  0.056207      2.000000
 -0.129805 -0.160625  0.112414      2.000000
 -0.032451  0.321251 -0.168621      2.000000
  0.259610 -0.091786 -0.112414      2.000000
 -0.097353  0.275358 -0.056207      2.000000
 -0.162256 -0.183572  0.168621      2.000000
 -0.227158  0.252411  0.056207      2.000000
 -0.032452 -0.298304  0.168621      2.000000
  0.292061  0.068839 -0.168621      2.000000
  0.227158  0.091786 -0.056207      2.000000
 -0.292061  0.068839  0.168621      2.000000
  0.129805 -0.183571 -0.112414      2.000000
  0.162256  0.183572 -0.056207      2.000000
  0.162256 -0.091785 -0.168621      2.000000
  0.162256 -0.298304  0.056207      2.000000
 -0.032451  0.183572 -0.168621      2.000000
 -0.129804  0.183572 -0.112414      2.000000
  0.162256  0.252411 -0.168621      2.000000
 -0.162256  0.229465  0.056207      2.000000
 -0.032452 -0.229465  0.168621      2.000000
  0.259610  0.045893 -0.112414      2.000000
  0.259609  0.114732 -0.112414      2.000000
 -0.032451  0.252412 -0.168621      2.000000
  0.129805  0.229465 -0.112414      2.000000
  0.227159 -0.114732 -0.168621      2.000000
  0.129804 -0.252411  0.112414      2.000000
 -0.227159  0.045893  0.168621      2.000000
 -0.194707  0.206518  0.112414      2.000000
  0.194707  0.206518 -0.112414      2.000000
  0.162256 -0.229465  0.056207      2.000000
 


--------------------------------------------------------------------------------------------------------




 Dimension of arrays:
   k-points           NKPTS =    172   k-points in BZ     NKDIM =    172   number of bands    NBANDS=     12
   number of dos      NEDOS =    301   number of ions     NIONS =      1
   non local maximal  LDIM  =      6   non local SUM 2l+1 LMDIM =     18
   total plane-waves  NPLWV =   2744
   max r-space proj   IRMAX =      1   max aug-charges    IRDMAX=  14513
   dimension x,y,z NGX =    14 NGY =   14 NGZ =   14
   dimension x,y,z NGXF=    28 NGYF=   28 NGZF=   28
   support grid    NGXF=    28 NGYF=   28 NGZF=   28
   ions per type =               1
   NGX,Y,Z   is equivalent  to a cutoff of   9.16,  9.16,  9.16 a.u.
   NGXF,Y,Z  is equivalent  to a cutoff of  18.31, 18.31, 18.31 a.u.

 SYSTEM =  unknown system                          
 POSCAR =  Pt1                                     

 Startparameter for this run:
   NWRITE =      2    write-flag & timer
   PREC   = normal    normal or accurate (medium, high low for compatibility)
   ISTART =      0    job   : 0-new  1-cont  2-samecut
   ICHARG =      2    charge: 1-file 2-atom 10-const
   ISPIN  =      1    spin polarized calculation?
   LNONCOLLINEAR =      F non collinear calculations
   LSORBIT =      F    spin-orbit coupling
   INIWAV =      1    electr: 0-lowe 1-rand  2-diag
   LASPH  =      F    aspherical Exc in radial PAW
   METAGGA=      F    non-selfconsistent MetaGGA calc.

 Electronic Relaxation 1
   ENCUT  =  420.0 eV  30.87 Ry    5.56 a.u.   4.25  4.25  4.25*2*pi/ulx,y,z
   ENINI  =  420.0     initial cutoff
   ENAUG  =  359.0 eV  augmentation charge cutoff
   NELM   =     60;   NELMIN=  4; NELMDL= -5     # of ELM steps 
   EDIFF  = 0.1E-03   stopping-criterion for ELM
   LREAL  =      F    real-space projection
   NLSPLINE    = F    spline interpolate recip. space projectors
   LCOMPAT=      F    compatible to vasp.4.4
   GGA_COMPAT  = T    GGA compatible to vasp.4.4-vasp.4.6
   LMAXPAW     = -100 max onsite density
   LMAXMIX     =    2 max onsite mixed and CHGCAR
   VOSKOWN=      0    Vosko Wilk Nusair interpolation
   ROPT   =    0.00000
 Ionic relaxation
   EDIFFG = -.3E-01   stopping-criterion for IOM
   NSW    =      0    number of steps for IOM
   NBLOCK =      1;   KBLOCK =      1    inner block; outer block 
   IBRION =     -1    ionic relax: 0-MD 1-quasi-New 2-CG
   NFREE  =      1    steps in history (QN), initial steepest desc. (CG)
   ISIF   =      0    stress and relaxation
   IWAVPR =     10    prediction:  0-non 1-charg 2-wave 3-comb
   ISYM   =      0    0-nonsym 1-usesym 2-fastsym
   LCORR  =      T    Harris-Foulkes like correction to forces

   POTIM  = 0.5000    time-step for ionic-motion
   TEIN   =    0.0    initial temperature
   TEBEG  =    0.0;   TEEND  =   0.0 temperature during run
   SMASS  =  -3.00    Nose mass-parameter (am)
   estimated Nose-frequenzy (Omega)   =  0.10E-29 period in steps = 0.13E+47 mass=  -0.148E-27a.u.
   SCALEE = 1.0000    scale energy and forces
   NPACO  =    256;   APACO  = 16.0  distance and # of slots for P.C.
   PSTRESS=    0.0 pullay stress

  Mass of Ions in am
   POMASS = 195.08
  Ionic Valenz
   ZVAL   =  10.00
  Atomic Wigner-Seitz radii
   RWIGS  =  -1.00
  virtual crystal weights 
   VCA    =   1.00
   NELECT =      10.0000    total number of electrons
   NUPDOWN=      -1.0000    fix difference up-down

 DOS related values:
   EMIN   =  10.00;   EMAX   =-10.00  energy-range for DOS
   EFERMI =   0.00
   ISMEAR =     0;   SIGMA  =   0.05  broadening in eV -4-tet -1-fermi 0-gaus

 Electronic relaxation 2 (details)
   IALGO  =     38    algorithm
   LDIAG  =      T    sub-space diagonalisation (order eigenvalues)
   LSUBROT=      F    optimize rotation matrix (better conditioning)
   TURBO    =      0    0=normal 1=particle mesh
   IRESTART =      0    0=no restart 2=restart with 2 vectors
   NREBOOT  =      0    no. of reboots
   NMIN     =      0    reboot dimension
   EREF     =   0.00    reference energy to select bands
   IMIX   =      4    mixing-type and parameters
     AMIX     =   0.40;   BMIX     =  1.00
     AMIX_MAG =   1.60;   BMIX_MAG =  1.00
     AMIN     =   0.10
     WC   =   100.;   INIMIX=   1;  MIXPRE=   1;  MAXMIX= -45

 Intra band minimization:
   WEIMIN = 0.0000     energy-eigenvalue tresh-hold
   EBREAK =  0.21E-05  absolut break condition
   DEPER  =   0.30     relativ break condition  

   TIME   =   0.40     timestep for ELM

  volume/ion in A,a.u.               =      11.61        78.35
  Fermi-wavevector in a.u.,A,eV,Ry     =   1.557643  2.943519 33.011174  2.426253
  Thomas-Fermi vector in A             =   2.661264
 
 Write flags
   LWAVE        =      F    write WAVECAR
   LDOWNSAMPLE  =      F    k-point downsampling of WAVECAR
   LCHARG       =      T    write CHGCAR
   LVTOT        =      F    write LOCPOT, total local potential
   LVHAR        =      F    write LOCPOT, Hartree potential only
   LELF         =      F    write electronic localiz. function (ELF)
   LORBIT       =     11    0 simple, 1 ext, 2 COOP (PROOUT), +10 PAW based schemes


 Dipole corrections
   LMONO  =      F    monopole corrections only (constant potential shift)
   LDIPOL =      F    correct potential (dipole corrections)
   IDIPOL =      0    1-x, 2-y, 3-z, 4-all directions 
   EPSILON=  1.0000000 bulk dielectric constant

 Exchange correlation treatment:
   GGA     =    RP    GGA type
   LEXCH   =     9    internal setting for exchange type
   VOSKOWN=      0    Vosko Wilk Nusair interpolation
   LHFCALC =     F    Hartree Fock is set to
   LHFONE  =     F    Hartree Fock one center treatment
   AEXX    =    0.0000 exact exchange contribution

 Linear response parameters
   LEPSILON=     F    determine dielectric tensor
   LRPA    =     F    only Hartree local field effects (RPA)
   LNABLA  =     F    use nabla operator in PAW spheres
   LVEL    =     F    velocity operator in full k-point grid
   LINTERFAST=   F  fast interpolation
   KINTER  =     0    interpolate to denser k-point grid
   CSHIFT  =0.1000    complex shift for real part using Kramers Kronig
   OMEGAMAX=  -1.0    maximum frequency
   DEG_THRESHOLD= 0.2000000E-02 threshold for treating states as degnerate
   RTIME   =   -0.100 relaxation time in fs
  (WPLASMAI=    0.000 imaginary part of plasma frequency in eV, 0.658/RTIME)
   DFIELD  = 0.0000000 0.0000000 0.0000000 field for delta impulse in time
 
 Orbital magnetization related:
   ORBITALMAG=     F  switch on orbital magnetization
   LCHIMAG   =     F  perturbation theory with respect to B field
   DQ        =  0.001000  dq finite difference perturbation B field
   LLRAUG    =     F  two centre corrections for induced B field



--------------------------------------------------------------------------------------------------------


 Static calculation
 charge density and potential will be updated during run
 non-spin polarized calculation
 Variant of blocked Davidson
 Davidson routine will perform the subspace rotation
 perform sub-space diagonalisation
    after iterative eigenvector-optimisation
 modified Broyden-mixing scheme, WC =      100.0
 initial mixing is a Kerker type mixing with AMIX =  0.4000 and BMIX =      1.0000
 Hartree-type preconditioning will be used
 using additional bands             7
 reciprocal scheme for non local part
 use partial core corrections
 calculate Harris-corrections to forces 
   (improved forces if not selfconsistent)
 use gradient corrections 
 use of overlap-Matrix (Vanderbilt PP)
 Gauss-broadening in eV      SIGMA  =   0.05


--------------------------------------------------------------------------------------------------------


  energy-cutoff  :      420.00
  volume of cell :       11.61
      direct lattice vectors                 reciprocal lattice vectors
     2.201115000  0.000004000  1.270827000     0.454315965 -0.160625784 -0.000000820
     0.733710000  2.075228000  1.270827000    -0.000000438  0.481875382 -0.000000758
     0.000006000  0.000004000  2.541634000    -0.227159551 -0.160626063  0.393448469

  length of vectors
     2.541635007  2.541633900  2.541634000     0.481875127  0.481875382  0.481875390


 
 k-points in units of 2pi/SCALE and weight: read from INCAR                         
   0.00000000  0.00000000  0.00000000       0.003
   0.06490228 -0.02294654 -0.00000012       0.006
  -0.00000006  0.06883934 -0.00000011       0.006
  -0.03245136 -0.02294658  0.05620692       0.006
   0.03245085  0.02294622  0.05620670       0.006
   0.12980456 -0.04589308 -0.00000023       0.006
  -0.00000013  0.13767868 -0.00000022       0.006
  -0.06490273 -0.04589316  0.11241385       0.006
   0.06490171  0.04589244  0.11241340       0.006
   0.19470684 -0.06883962 -0.00000035       0.006
  -0.00000019  0.20651802 -0.00000033       0.006
  -0.09735409 -0.06883974  0.16862077       0.006
   0.09735256  0.06883866  0.16862010       0.006
   0.06490222  0.04589280 -0.00000023       0.006
  -0.03245143  0.04589276  0.05620682       0.006
   0.03245092 -0.04589312  0.05620681       0.006
   0.12980450  0.02294626 -0.00000034       0.006
  -0.03245149  0.11473210  0.05620671       0.006
  -0.00000045 -0.06883970  0.11241373       0.006
   0.09735358  0.06883938 -0.05620715       0.006
   0.06490177 -0.02294690  0.11241351       0.006
   0.06490216  0.11473214 -0.00000033       0.006
   0.09735371 -0.06883930 -0.05620693       0.006
   0.09735307  0.06883902  0.05620647       0.006
  -0.06490279  0.02294618  0.11241374       0.006
  -0.03245098  0.11473246 -0.05620692       0.006
  -0.00000057  0.06883898  0.11241351       0.006
   0.09735320 -0.06883966  0.05620669       0.006
   0.19470678 -0.00000028 -0.00000046       0.006
  -0.03245155  0.18357144  0.05620660       0.006
  -0.03245181 -0.09178628  0.16862066       0.006
   0.12980495  0.09178596 -0.11241407       0.006
   0.09735262 -0.00000068  0.16862020       0.006
   0.06490209  0.18357148 -0.00000044       0.006
   0.16225599 -0.09178584 -0.05620705       0.006
   0.12980393  0.09178524  0.11241317       0.006
  -0.09735416 -0.00000040  0.16862066       0.006
  -0.03245104  0.18357180 -0.05620702       0.006
   0.03245028  0.09178520  0.16862021       0.006
   0.16225548 -0.09178620  0.05620657       0.006
  -0.19470690  0.13767896  0.00000024       0.006
  -0.03245118 -0.22946460  0.05620725       0.006
   0.16225637  0.04589320 -0.16862089       0.006
   0.16225631  0.11473254 -0.16862100       0.006
  -0.09735294  0.34419738 -0.16862075       0.006
   0.06490247 -0.22946456  0.00000021       0.006
   0.22715827 -0.11473238 -0.05620717       0.006
  -0.29206075 -0.20651814  0.16862145       0.006
   0.09735403  0.13767908 -0.16862088       0.006
  -0.03245110  0.25241114 -0.05620713       0.006
   0.29206112 -0.20651790 -0.16862080       0.006
  -0.22715821  0.04589304  0.05620728       0.006
  -0.12980462  0.11473242  0.00000013       0.006
  -0.03245124 -0.16062526  0.05620714       0.006
   0.12980501  0.02294662 -0.11241397       0.006
  -0.03245188 -0.02294694  0.16862055       0.006
  -0.06490164 -0.11473178 -0.11241329       0.006
   0.06490241 -0.16062522  0.00000010       0.006
  -0.16225541  0.02294686 -0.05620646       0.006
  -0.03245034 -0.02294586 -0.16862032       0.006
   0.06490267  0.11473250 -0.11241396       0.006
  -0.03245073 -0.16062490 -0.05620648       0.006
  -0.12980399 -0.02294590 -0.11241328       0.006
  -0.16225593  0.02294650  0.05620716       0.006
  -0.06490234  0.09178588  0.00000001       0.006
  -0.03245130 -0.09178592  0.05620703       0.006
   0.09735365  0.00000004 -0.05620704       0.006
  -0.00000051 -0.00000036  0.11241362       0.006
  -0.03245079 -0.09178556 -0.05620659       0.006
  -0.09735313  0.00000032 -0.05620658       0.006
   0.12980444  0.09178560 -0.00000045       0.006
  -0.06490285  0.09178552  0.11241363       0.006
   0.06490183 -0.09178624  0.11241361       0.006
   0.19470672  0.06883906 -0.00000057       0.006
  -0.06490292  0.16062486  0.11241352       0.006
   0.03245047 -0.11473282  0.16862054       0.006
   0.16225580  0.11473218 -0.05620737       0.006
   0.09735269 -0.06884002  0.16862031       0.006
   0.12980437  0.16062494 -0.00000056       0.006
   0.12980513 -0.11473206 -0.11241375       0.006
   0.16225529  0.11473182  0.05620625       0.006
  -0.09735422  0.06883894  0.16862056       0.006
  -0.06490190  0.16062558 -0.11241372       0.006
  -0.03245200  0.11473174  0.16862033       0.006
   0.12980411 -0.11473278  0.11241350       0.006
  -0.19470697  0.20651830  0.00000013       0.006
  -0.06490254 -0.25241118  0.11241417       0.006
   0.22715865  0.02294666 -0.16862101       0.006
   0.19470716  0.13767876 -0.11241430       0.006
  -0.09735287  0.27535804 -0.16862064       0.006
   0.12980475 -0.25241110  0.00000009       0.006
   0.19470742 -0.13767860 -0.11241387       0.006
  -0.25960938 -0.18357156  0.11241452       0.006
   0.09735397  0.20651842 -0.16862099       0.006
  -0.06490196  0.22946492 -0.11241383       0.006
   0.22715884 -0.18357136 -0.16862068       0.006
  -0.25960957  0.02294646  0.11241420       0.006
  -0.12980469  0.18357176  0.00000002       0.006
  -0.06490260 -0.18357184  0.11241406       0.006
   0.19470729  0.00000008 -0.11241408       0.006
   0.22715853  0.16062534 -0.16862122       0.006
  -0.06490202  0.29830426 -0.11241394       0.006
   0.25960970 -0.16062514 -0.11241398       0.006
   0.19470665  0.13767840 -0.00000068       0.006
  -0.09735428  0.13767828  0.16862045       0.006
   0.09735275 -0.13767936  0.16862042       0.006
  -0.19470703  0.27535764  0.00000003       0.006
  -0.09735391 -0.27535776  0.16862110       0.006
   0.29206094  0.00000012 -0.16862112       0.006
   0.22715802  0.16062498 -0.05620760       0.006
  -0.09735281  0.20651870 -0.16862053       0.006
   0.16225656 -0.16062482 -0.16862056       0.006
   0.16225535  0.04589248  0.05620636       0.006
  -0.00000064  0.13767832  0.11241341       0.006
   0.03245041 -0.04589348  0.16862043       0.006
   0.16225586  0.04589284 -0.05620727       0.006
   0.12980405 -0.04589344  0.11241339       0.006
   0.09735377 -0.13767864 -0.05620682       0.006
   0.09735352  0.13767872 -0.05620726       0.006
   0.12980507 -0.04589272 -0.11241386       0.006
   0.09735301  0.13767836  0.05620636       0.006
   0.00000039  0.13767904 -0.11241384       0.006
  -0.09735326  0.13767900 -0.05620680       0.006
  -0.03245194  0.04589240  0.16862044       0.006
  -0.22715833  0.18357172  0.05620706       0.006
  -0.00000026 -0.27535772  0.11241406       0.006
   0.22715859  0.09178600 -0.16862111       0.006
   0.19470723  0.06883942 -0.11241419       0.006
  -0.29206106  0.13767856  0.16862091       0.006
   0.09735383 -0.20651798 -0.05620672       0.006
   0.09735346  0.20651806 -0.05620737       0.006
   0.19470735 -0.06883926 -0.11241397       0.006
  -0.29206081 -0.13767880  0.16862134       0.006
   0.12980430 -0.32125080  0.11241382       0.006
   0.03245175  0.16062562 -0.16862076       0.006
  -0.16225605  0.16062518  0.05620694       0.006
  -0.16225644  0.02294614  0.16862078       0.006
  -0.09735332  0.20651834 -0.05620691       0.006
   0.25960976 -0.22946448 -0.11241387       0.006
   0.22715847  0.22946468 -0.16862133       0.006
  -0.22715814 -0.02294630  0.05620738       0.006
  -0.00000032 -0.20651838  0.11241395       0.006
   0.16225554 -0.16062554  0.05620668       0.006
  -0.12980488 -0.16062530  0.11241418       0.006
  -0.03245066  0.32125084 -0.16862086       0.006
   0.25960963 -0.09178580 -0.11241409       0.006
  -0.09735338  0.27535768 -0.05620701       0.006
  -0.16225625 -0.18357188  0.16862111       0.006
  -0.22715839  0.25241106  0.05620695       0.006
  -0.03245162 -0.29830430  0.16862098       0.006
   0.29206087  0.06883946 -0.16862123       0.006
   0.22715808  0.09178564 -0.05620749       0.006
  -0.29206100  0.06883922  0.16862102       0.006
   0.12980520 -0.18357140 -0.11241364       0.006
   0.16225574  0.18357152 -0.05620748       0.006
   0.16225650 -0.09178548 -0.16862067       0.006
   0.16225567 -0.29830422  0.05620690       0.006
  -0.03245053  0.18357216 -0.16862065       0.006
  -0.12980418  0.18357212 -0.11241361       0.006
   0.16225619  0.25241122 -0.16862121       0.006
  -0.16225611  0.22946452  0.05620683       0.006
  -0.03245169 -0.22946496  0.16862087       0.006
   0.25960951  0.04589288 -0.11241431       0.006
   0.25960945  0.11473222 -0.11241442       0.006
  -0.03245059  0.25241150 -0.16862075       0.006
   0.12980482  0.22946464 -0.11241429       0.006
   0.22715878 -0.11473202 -0.16862079       0.006
   0.12980424 -0.25241146  0.11241371       0.006
  -0.22715872  0.04589268  0.16862090       0.006
  -0.19470748  0.20651794  0.11241376       0.006
   0.19470710  0.20651810 -0.11241441       0.006
   0.16225560 -0.22946488  0.05620679       0.006
 
 k-points in reciprocal lattice and weights: read from INCAR                         
   0.00000000  0.00000000  0.00000000       0.003
   0.14285714  0.00000000  0.00000000       0.006
   0.00000000  0.14285714  0.00000000       0.006
   0.00000000  0.00000000  0.14285714       0.006
   0.14285714  0.14285714  0.14285714       0.006
   0.28571429  0.00000000  0.00000000       0.006
   0.00000000  0.28571429  0.00000000       0.006
   0.00000000  0.00000000  0.28571429       0.006
   0.28571429  0.28571429  0.28571429       0.006
   0.42857143  0.00000000  0.00000000       0.006
   0.00000000  0.42857143  0.00000000       0.006
   0.00000000  0.00000000  0.42857143       0.006
   0.42857143  0.42857143  0.42857143       0.006
   0.14285714  0.14285714  0.00000000       0.006
   0.00000000  0.14285714  0.14285714       0.006
   0.14285714  0.00000000  0.14285714       0.006
   0.28571429  0.14285714  0.00000000       0.006
   0.00000000  0.28571429  0.14285714       0.006
   0.14285714  0.00000000  0.28571429       0.006
   0.14285714  0.14285714 -0.14285714       0.006
   0.28571429  0.14285714  0.28571429       0.006
   0.14285714  0.28571429  0.00000000       0.006
   0.14285714 -0.14285714 -0.14285714       0.006
   0.28571429  0.28571429  0.14285714       0.006
   0.00000000  0.14285714  0.28571429       0.006
  -0.14285714  0.14285714 -0.14285714       0.006
   0.14285714  0.28571429  0.28571429       0.006
   0.28571429  0.00000000  0.14285714       0.006
   0.42857143  0.14285714  0.00000000       0.006
   0.00000000  0.42857143  0.14285714       0.006
   0.14285714  0.00000000  0.42857143       0.006
   0.14285714  0.14285714 -0.28571429       0.006
   0.42857143  0.28571429  0.42857143       0.006
   0.14285714  0.42857143  0.00000000       0.006
   0.28571429 -0.14285714 -0.14285714       0.006
   0.42857143  0.42857143  0.28571429       0.006
   0.00000000  0.14285714  0.42857143       0.006
  -0.14285714  0.28571429 -0.14285714       0.006
   0.28571429  0.42857143  0.42857143       0.006
   0.42857143  0.00000000  0.14285714       0.006
  -0.42857143  0.14285714  0.00000000       0.006
   0.00000000 -0.42857143  0.14285714       0.006
   0.14285714  0.00000000 -0.42857143       0.006
   0.14285714  0.14285714 -0.42857143       0.006
  -0.42857143  0.42857143 -0.42857143       0.006
   0.14285714 -0.42857143  0.00000000       0.006
   0.42857143 -0.14285714 -0.14285714       0.006
  -0.42857143 -0.42857143  0.42857143       0.006
   0.00000000  0.14285714 -0.42857143       0.006
  -0.14285714  0.42857143 -0.14285714       0.006
   0.42857143 -0.42857143 -0.42857143       0.006
  -0.42857143  0.00000000  0.14285714       0.006
  -0.28571429  0.14285714  0.00000000       0.006
   0.00000000 -0.28571429  0.14285714       0.006
   0.14285714  0.00000000 -0.28571429       0.006
   0.14285714  0.14285714  0.42857143       0.006
  -0.28571429 -0.42857143 -0.28571429       0.006
   0.14285714 -0.28571429  0.00000000       0.006
  -0.42857143 -0.14285714 -0.14285714       0.006
  -0.28571429 -0.28571429 -0.42857143       0.006
   0.00000000  0.14285714 -0.28571429       0.006
  -0.14285714 -0.42857143 -0.14285714       0.006
  -0.42857143 -0.28571429 -0.28571429       0.006
  -0.28571429  0.00000000  0.14285714       0.006
  -0.14285714  0.14285714  0.00000000       0.006
   0.00000000 -0.14285714  0.14285714       0.006
   0.14285714  0.00000000 -0.14285714       0.006
   0.14285714  0.14285714  0.28571429       0.006
  -0.14285714 -0.28571429 -0.14285714       0.006
  -0.28571429 -0.14285714 -0.14285714       0.006
   0.28571429  0.28571429  0.00000000       0.006
   0.00000000  0.28571429  0.28571429       0.006
   0.28571429  0.00000000  0.28571429       0.006
   0.42857143  0.28571429  0.00000000       0.006
   0.00000000  0.42857143  0.28571429       0.006
   0.28571429  0.00000000  0.42857143       0.006
   0.28571429  0.28571429 -0.14285714       0.006
   0.42857143  0.14285714  0.42857143       0.006
   0.28571429  0.42857143  0.00000000       0.006
   0.14285714 -0.28571429 -0.28571429       0.006
   0.42857143  0.42857143  0.14285714       0.006
   0.00000000  0.28571429  0.42857143       0.006
  -0.28571429  0.14285714 -0.28571429       0.006
   0.14285714  0.42857143  0.42857143       0.006
   0.42857143  0.00000000  0.28571429       0.006
  -0.42857143  0.28571429  0.00000000       0.006
   0.00000000 -0.42857143  0.28571429       0.006
   0.28571429  0.00000000 -0.42857143       0.006
   0.28571429  0.28571429 -0.28571429       0.006
  -0.42857143  0.28571429 -0.42857143       0.006
   0.28571429 -0.42857143  0.00000000       0.006
   0.28571429 -0.28571429 -0.28571429       0.006
  -0.42857143 -0.42857143  0.28571429       0.006
   0.00000000  0.28571429 -0.42857143       0.006
  -0.28571429  0.28571429 -0.28571429       0.006
   0.28571429 -0.42857143 -0.42857143       0.006
  -0.42857143  0.00000000  0.28571429       0.006
  -0.28571429  0.28571429  0.00000000       0.006
   0.00000000 -0.28571429  0.28571429       0.006
   0.28571429  0.00000000 -0.28571429       0.006
   0.28571429  0.28571429 -0.42857143       0.006
  -0.28571429  0.42857143 -0.28571429       0.006
   0.42857143 -0.28571429 -0.28571429       0.006
   0.42857143  0.42857143  0.00000000       0.006
   0.00000000  0.42857143  0.42857143       0.006
   0.42857143  0.00000000  0.42857143       0.006
  -0.42857143  0.42857143  0.00000000       0.006
   0.00000000 -0.42857143  0.42857143       0.006
   0.42857143  0.00000000 -0.42857143       0.006
   0.42857143  0.42857143 -0.14285714       0.006
  -0.42857143  0.14285714 -0.42857143       0.006
   0.14285714 -0.42857143 -0.42857143       0.006
   0.42857143  0.28571429  0.14285714       0.006
   0.14285714  0.42857143  0.28571429       0.006
   0.28571429  0.14285714  0.42857143       0.006
   0.28571429  0.14285714 -0.14285714       0.006
   0.42857143  0.14285714  0.28571429       0.006
   0.14285714 -0.28571429 -0.14285714       0.006
   0.14285714  0.28571429 -0.14285714       0.006
   0.14285714 -0.14285714 -0.28571429       0.006
   0.28571429  0.42857143  0.14285714       0.006
  -0.14285714  0.14285714 -0.28571429       0.006
  -0.28571429  0.14285714 -0.14285714       0.006
   0.14285714  0.28571429  0.42857143       0.006
  -0.42857143  0.28571429  0.14285714       0.006
   0.14285714 -0.42857143  0.28571429       0.006
   0.28571429  0.14285714 -0.42857143       0.006
   0.28571429  0.14285714 -0.28571429       0.006
  -0.42857143  0.28571429  0.42857143       0.006
   0.14285714 -0.42857143 -0.14285714       0.006
   0.14285714  0.42857143 -0.14285714       0.006
   0.28571429 -0.14285714 -0.28571429       0.006
  -0.42857143 -0.28571429  0.42857143       0.006
   0.42857143 -0.42857143  0.28571429       0.006
  -0.14285714  0.14285714 -0.42857143       0.006
  -0.28571429  0.28571429  0.14285714       0.006
  -0.14285714  0.14285714  0.42857143       0.006
  -0.28571429  0.28571429 -0.14285714       0.006
   0.42857143 -0.42857143 -0.28571429       0.006
   0.28571429  0.42857143 -0.42857143       0.006
  -0.42857143 -0.14285714  0.14285714       0.006
   0.14285714 -0.28571429  0.28571429       0.006
   0.42857143 -0.14285714  0.14285714       0.006
  -0.14285714 -0.28571429  0.28571429       0.006
  -0.28571429  0.42857143 -0.42857143       0.006
   0.42857143 -0.14285714 -0.28571429       0.006
  -0.28571429  0.42857143 -0.14285714       0.006
  -0.14285714 -0.28571429  0.42857143       0.006
  -0.42857143  0.42857143  0.14285714       0.006
   0.14285714 -0.42857143  0.42857143       0.006
   0.42857143  0.14285714 -0.42857143       0.006
   0.42857143  0.28571429 -0.14285714       0.006
  -0.42857143  0.14285714  0.42857143       0.006
   0.14285714 -0.42857143 -0.28571429       0.006
   0.28571429  0.42857143 -0.14285714       0.006
   0.14285714 -0.28571429 -0.42857143       0.006
   0.42857143 -0.42857143  0.14285714       0.006
  -0.28571429  0.14285714 -0.42857143       0.006
  -0.42857143  0.14285714 -0.28571429       0.006
   0.14285714  0.42857143 -0.42857143       0.006
  -0.28571429  0.42857143  0.14285714       0.006
   0.14285714 -0.28571429  0.42857143       0.006
   0.42857143  0.14285714 -0.28571429       0.006
   0.42857143  0.28571429 -0.28571429       0.006
  -0.28571429  0.28571429 -0.42857143       0.006
   0.14285714  0.42857143 -0.28571429       0.006
   0.28571429 -0.28571429 -0.42857143       0.006
   0.42857143 -0.28571429  0.28571429       0.006
  -0.28571429  0.14285714  0.42857143       0.006
  -0.28571429  0.42857143  0.28571429       0.006
   0.28571429  0.42857143 -0.28571429       0.006
   0.42857143 -0.28571429  0.14285714       0.006
 
 position of ions in fractional coordinates (direct lattice) 
   0.00000000  0.00000000  0.00000000
 
 position of ions in cartesian coordinates  (Angst):
   0.00000000  0.00000000  0.00000000
 


--------------------------------------------------------------------------------------------------------


 k-point   1 :   0.0000 0.0000 0.0000  plane waves:     259
 k-point   2 :   0.1429 0.0000 0.0000  plane waves:     232
 k-point   3 :   0.0000 0.1429 0.0000  plane waves:     232
 k-point   4 :   0.0000 0.0000 0.1429  plane waves:     232
 k-point   5 :   0.1429 0.1429 0.1429  plane waves:     232
 k-point   6 :   0.2857 0.0000 0.0000  plane waves:     229
 k-point   7 :   0.0000 0.2857 0.0000  plane waves:     229
 k-point   8 :   0.0000 0.0000 0.2857  plane waves:     229
 k-point   9 :   0.2857 0.2857 0.2857  plane waves:     229
 k-point  10 :   0.4286 0.0000 0.0000  plane waves:     229
 k-point  11 :   0.0000 0.4286 0.0000  plane waves:     229
 k-point  12 :   0.0000 0.0000 0.4286  plane waves:     229
 k-point  13 :   0.4286 0.4286 0.4286  plane waves:     229
 k-point  14 :   0.1429 0.1429 0.0000  plane waves:     226
 k-point  15 :   0.0000 0.1429 0.1429  plane waves:     226
 k-point  16 :   0.1429 0.0000 0.1429  plane waves:     226
 k-point  17 :   0.2857 0.1429 0.0000  plane waves:     224
 k-point  18 :   0.0000 0.2857 0.1429  plane waves:     224
 k-point  19 :   0.1429 0.0000 0.2857  plane waves:     224
 k-point  20 :   0.1429 0.1429-0.1429  plane waves:     224
 k-point  21 :   0.2857 0.1429 0.2857  plane waves:     224
 k-point  22 :   0.1429 0.2857 0.0000  plane waves:     224
 k-point  23 :   0.1429-0.1429-0.1429  plane waves:     224
 k-point  24 :   0.2857 0.2857 0.1429  plane waves:     224
 k-point  25 :   0.0000 0.1429 0.2857  plane waves:     224
 k-point  26 :  -0.1429 0.1429-0.1429  plane waves:     224
 k-point  27 :   0.1429 0.2857 0.2857  plane waves:     224
 k-point  28 :   0.2857 0.0000 0.1429  plane waves:     224
 k-point  29 :   0.4286 0.1429 0.0000  plane waves:     233
 k-point  30 :   0.0000 0.4286 0.1429  plane waves:     233
 k-point  31 :   0.1429 0.0000 0.4286  plane waves:     233
 k-point  32 :   0.1429 0.1429-0.2857  plane waves:     233
 k-point  33 :   0.4286 0.2857 0.4286  plane waves:     233
 k-point  34 :   0.1429 0.4286 0.0000  plane waves:     233
 k-point  35 :   0.2857-0.1429-0.1429  plane waves:     233
 k-point  36 :   0.4286 0.4286 0.2857  plane waves:     233
 k-point  37 :   0.0000 0.1429 0.4286  plane waves:     233
 k-point  38 :  -0.1429 0.2857-0.1429  plane waves:     233
 k-point  39 :   0.2857 0.4286 0.4286  plane waves:     233
 k-point  40 :   0.4286 0.0000 0.1429  plane waves:     233
 k-point  41 :  -0.4286 0.1429 0.0000  plane waves:     227
 k-point  42 :   0.0000-0.4286 0.1429  plane waves:     227
 k-point  43 :   0.1429 0.0000-0.4286  plane waves:     227
 k-point  44 :   0.1429 0.1429-0.4286  plane waves:     227
 k-point  45 :  -0.4286 0.4286-0.4286  plane waves:     227
 k-point  46 :   0.1429-0.4286 0.0000  plane waves:     227
 k-point  47 :   0.4286-0.1429-0.1429  plane waves:     227
 k-point  48 :  -0.4286-0.4286 0.4286  plane waves:     227
 k-point  49 :   0.0000 0.1429-0.4286  plane waves:     227
 k-point  50 :  -0.1429 0.4286-0.1429  plane waves:     227
 k-point  51 :   0.4286-0.4286-0.4286  plane waves:     227
 k-point  52 :  -0.4286 0.0000 0.1429  plane waves:     227
 k-point  53 :  -0.2857 0.1429 0.0000  plane waves:     227
 k-point  54 :   0.0000-0.2857 0.1429  plane waves:     227
 k-point  55 :   0.1429 0.0000-0.2857  plane waves:     227
 k-point  56 :   0.1429 0.1429 0.4286  plane waves:     227
 k-point  57 :  -0.2857-0.4286-0.2857  plane waves:     227
 k-point  58 :   0.1429-0.2857 0.0000  plane waves:     227
 k-point  59 :  -0.4286-0.1429-0.1429  plane waves:     227
 k-point  60 :  -0.2857-0.2857-0.4286  plane waves:     227
 k-point  61 :   0.0000 0.1429-0.2857  plane waves:     227
 k-point  62 :  -0.1429-0.4286-0.1429  plane waves:     227
 k-point  63 :  -0.4286-0.2857-0.2857  plane waves:     227
 k-point  64 :  -0.2857 0.0000 0.1429  plane waves:     227
 k-point  65 :  -0.1429 0.1429 0.0000  plane waves:     218
 k-point  66 :   0.0000-0.1429 0.1429  plane waves:     218
 k-point  67 :   0.1429 0.0000-0.1429  plane waves:     218
 k-point  68 :   0.1429 0.1429 0.2857  plane waves:     218
 k-point  69 :  -0.1429-0.2857-0.1429  plane waves:     218
 k-point  70 :  -0.2857-0.1429-0.1429  plane waves:     218
 k-point  71 :   0.2857 0.2857 0.0000  plane waves:     218
 k-point  72 :   0.0000 0.2857 0.2857  plane waves:     218
 k-point  73 :   0.2857 0.0000 0.2857  plane waves:     218
 k-point  74 :   0.4286 0.2857 0.0000  plane waves:     226
 k-point  75 :   0.0000 0.4286 0.2857  plane waves:     226
 k-point  76 :   0.2857 0.0000 0.4286  plane waves:     226
 k-point  77 :   0.2857 0.2857-0.1429  plane waves:     226
 k-point  78 :   0.4286 0.1429 0.4286  plane waves:     226
 k-point  79 :   0.2857 0.4286 0.0000  plane waves:     226
 k-point  80 :   0.1429-0.2857-0.2857  plane waves:     226
 k-point  81 :   0.4286 0.4286 0.1429  plane waves:     226
 k-point  82 :   0.0000 0.2857 0.4286  plane waves:     226
 k-point  83 :  -0.2857 0.1429-0.2857  plane waves:     226
 k-point  84 :   0.1429 0.4286 0.4286  plane waves:     226
 k-point  85 :   0.4286 0.0000 0.2857  plane waves:     226
 k-point  86 :  -0.4286 0.2857 0.0000  plane waves:     225
 k-point  87 :   0.0000-0.4286 0.2857  plane waves:     225
 k-point  88 :   0.2857 0.0000-0.4286  plane waves:     225
 k-point  89 :   0.2857 0.2857-0.2857  plane waves:     225
 k-point  90 :  -0.4286 0.2857-0.4286  plane waves:     225
 k-point  91 :   0.2857-0.4286 0.0000  plane waves:     225
 k-point  92 :   0.2857-0.2857-0.2857  plane waves:     225
 k-point  93 :  -0.4286-0.4286 0.2857  plane waves:     225
 k-point  94 :   0.0000 0.2857-0.4286  plane waves:     225
 k-point  95 :  -0.2857 0.2857-0.2857  plane waves:     225
 k-point  96 :   0.2857-0.4286-0.4286  plane waves:     225
 k-point  97 :  -0.4286 0.0000 0.2857  plane waves:     225
 k-point  98 :  -0.2857 0.2857 0.0000  plane waves:     226
 k-point  99 :   0.0000-0.2857 0.2857  plane waves:     226
 k-point 100 :   0.2857 0.0000-0.2857  plane waves:     226
 k-point 101 :   0.2857 0.2857-0.4286  plane waves:     226
 k-point 102 :  -0.2857 0.4286-0.2857  plane waves:     226
 k-point 103 :   0.4286-0.2857-0.2857  plane waves:     226
 k-point 104 :   0.4286 0.4286 0.0000  plane waves:     222
 k-point 105 :   0.0000 0.4286 0.4286  plane waves:     222
 k-point 106 :   0.4286 0.0000 0.4286  plane waves:     222
 k-point 107 :  -0.4286 0.4286 0.0000  plane waves:     228
 k-point 108 :   0.0000-0.4286 0.4286  plane waves:     228
 k-point 109 :   0.4286 0.0000-0.4286  plane waves:     228
 k-point 110 :   0.4286 0.4286-0.1429  plane waves:     228
 k-point 111 :  -0.4286 0.1429-0.4286  plane waves:     228
 k-point 112 :   0.1429-0.4286-0.4286  plane waves:     228
 k-point 113 :   0.4286 0.2857 0.1429  plane waves:     225
 k-point 114 :   0.1429 0.4286 0.2857  plane waves:     225
 k-point 115 :   0.2857 0.1429 0.4286  plane waves:     225
 k-point 116 :   0.2857 0.1429-0.1429  plane waves:     225
 k-point 117 :   0.4286 0.1429 0.2857  plane waves:     225
 k-point 118 :   0.1429-0.2857-0.1429  plane waves:     225
 k-point 119 :   0.1429 0.2857-0.1429  plane waves:     225
 k-point 120 :   0.1429-0.1429-0.2857  plane waves:     225
 k-point 121 :   0.2857 0.4286 0.1429  plane waves:     225
 k-point 122 :  -0.1429 0.1429-0.2857  plane waves:     225
 k-point 123 :  -0.2857 0.1429-0.1429  plane waves:     225
 k-point 124 :   0.1429 0.2857 0.4286  plane waves:     225
 k-point 125 :  -0.4286 0.2857 0.1429  plane waves:     231
 k-point 126 :   0.1429-0.4286 0.2857  plane waves:     231
 k-point 127 :   0.2857 0.1429-0.4286  plane waves:     231
 k-point 128 :   0.2857 0.1429-0.2857  plane waves:     231
 k-point 129 :  -0.4286 0.2857 0.4286  plane waves:     231
 k-point 130 :   0.1429-0.4286-0.1429  plane waves:     231
 k-point 131 :   0.1429 0.4286-0.1429  plane waves:     231
 k-point 132 :   0.2857-0.1429-0.2857  plane waves:     231
 k-point 133 :  -0.4286-0.2857 0.4286  plane waves:     231
 k-point 134 :   0.4286-0.4286 0.2857  plane waves:     231
 k-point 135 :  -0.1429 0.1429-0.4286  plane waves:     231
 k-point 136 :  -0.2857 0.2857 0.1429  plane waves:     231
 k-point 137 :  -0.1429 0.1429 0.4286  plane waves:     231
 k-point 138 :  -0.2857 0.2857-0.1429  plane waves:     231
 k-point 139 :   0.4286-0.4286-0.2857  plane waves:     231
 k-point 140 :   0.2857 0.4286-0.4286  plane waves:     231
 k-point 141 :  -0.4286-0.1429 0.1429  plane waves:     231
 k-point 142 :   0.1429-0.2857 0.2857  plane waves:     231
 k-point 143 :   0.4286-0.1429 0.1429  plane waves:     231
 k-point 144 :  -0.1429-0.2857 0.2857  plane waves:     231
 k-point 145 :  -0.2857 0.4286-0.4286  plane waves:     231
 k-point 146 :   0.4286-0.1429-0.2857  plane waves:     231
 k-point 147 :  -0.2857 0.4286-0.1429  plane waves:     231
 k-point 148 :  -0.1429-0.2857 0.4286  plane waves:     231
 k-point 149 :  -0.4286 0.4286 0.1429  plane waves:     228
 k-point 150 :   0.1429-0.4286 0.4286  plane waves:     228
 k-point 151 :   0.4286 0.1429-0.4286  plane waves:     228
 k-point 152 :   0.4286 0.2857-0.1429  plane waves:     228
 k-point 153 :  -0.4286 0.1429 0.4286  plane waves:     228
 k-point 154 :   0.1429-0.4286-0.2857  plane waves:     228
 k-point 155 :   0.2857 0.4286-0.1429  plane waves:     228
 k-point 156 :   0.1429-0.2857-0.4286  plane waves:     228
 k-point 157 :   0.4286-0.4286 0.1429  plane waves:     228
 k-point 158 :  -0.2857 0.1429-0.4286  plane waves:     228
 k-point 159 :  -0.4286 0.1429-0.2857  plane waves:     228
 k-point 160 :   0.1429 0.4286-0.4286  plane waves:     228
 k-point 161 :  -0.2857 0.4286 0.1429  plane waves:     227
 k-point 162 :   0.1429-0.2857 0.4286  plane waves:     227
 k-point 163 :   0.4286 0.1429-0.2857  plane waves:     227
 k-point 164 :   0.4286 0.2857-0.2857  plane waves:     227
 k-point 165 :  -0.2857 0.2857-0.4286  plane waves:     227
 k-point 166 :   0.1429 0.4286-0.2857  plane waves:     227
 k-point 167 :   0.2857-0.2857-0.4286  plane waves:     227
 k-point 168 :   0.4286-0.2857 0.2857  plane waves:     227
 k-point 169 :  -0.2857 0.1429 0.4286  plane waves:     227
 k-point 170 :  -0.2857 0.4286 0.2857  plane waves:     227
 k-point 171 :   0.2857 0.4286-0.2857  plane waves:     227
 k-point 172 :   0.4286-0.2857 0.1429  plane waves:     227

 maximum and minimum number of plane-waves per node :        71       48

 maximum number of plane-waves:       259
 maximum index in each direction: 
   IXMAX=    4   IYMAX=    4   IZMAX=    4
   IXMIN=   -4   IYMIN=   -4   IZMIN=   -4


 parallel 3D FFT for wavefunctions:
    minimum data exchange during FFTs selected (reduces bandwidth)
 parallel 3D FFT for charge:
    minimum data exchange during FFTs selected (reduces bandwidth)


 total amount of memory used by VASP MPI-rank0    32485. kBytes
=======================================================================

   base      :      30000. kBytes
   nonl-proj :       1586. kBytes
   fftplans  :         80. kBytes
   grid      :        111. kBytes
   one-center:         15. kBytes
   wavefun   :        693. kBytes
 
     INWAV:  cpu time    0.0000: real time    0.0000
 Broyden mixing: mesh for mixing (old mesh)
   NGX =  9   NGY =  9   NGZ =  9
  (NGX  = 28   NGY  = 28   NGZ  = 28)
  gives a total of    729 points

 initial charge density was supplied:
 charge density of overlapping atoms calculated
 number of electron      10.0000000 magnetization 
 keeping initial charge density in first step


--------------------------------------------------------------------------------------------------------


 Maximum index for augmentation-charges           965 (set IRDMAX)


--------------------------------------------------------------------------------------------------------


 First call to EWALD:  gamma=   0.783
 Maximum number of real-space cells 3x 3x 3
 Maximum number of reciprocal cells 3x 3x 3

    FEWALD:  cpu time    0.0010: real time    0.0011


--------------------------------------- Iteration      1(   1)  ---------------------------------------


    POTLOK:  cpu time    0.0046: real time    0.0046
    SETDIJ:  cpu time    0.0049: real time    0.0049
     EDDAV:  cpu time    0.6415: real time    0.6452
       DOS:  cpu time    0.0019: real time    0.0019
    --------------------------------------------
      LOOP:  cpu time    0.6528: real time    0.6566

 eigenvalue-minimisations  :  4276
 total energy-change (2. order) : 0.3817791E+02  (-0.4733648E+03)
 number of electron      10.0000000 magnetization 
 augmentation part       10.0000000 magnetization 

 Free energy of the ion-electron system (eV)
  ---------------------------------------------------
  alpha Z        PSCENC =        81.87842481
  Ewald energy   TEWEN  =      -918.38662708
  -Hartree energ DENC   =       -50.37463692
  -exchange      EXHF   =         0.00000000
  -V(xc)+E(xc)   XCENC  =         4.91496651
  PAW double counting   =       696.70595042     -667.45827301
  entropy T*S    EENTRO =        -0.00070623
  eigenvalues    EBANDS =       162.57960098
  atomic energy  EATOM  =       728.31920932
  Solvation  Ediel_sol  =         0.00000000
  ---------------------------------------------------
  free energy    TOTEN  =        38.17790880 eV

  energy without entropy =       38.17861503  energy(sigma->0) =       38.17826191


--------------------------------------------------------------------------------------------------------




--------------------------------------- Iteration      1(   2)  ---------------------------------------


     EDDAV:  cpu time    0.7153: real time    0.7163
       DOS:  cpu time    0.0019: real time    0.0019
    --------------------------------------------
      LOOP:  cpu time    0.7172: real time    0.7183

 eigenvalue-minimisations  :  4960
 total energy-change (2. order) :-0.4168939E+02  (-0.4012260E+02)
 number of electron      10.0000000 magnetization 
 augmentation part       10.0000000 magnetization 

 Free energy of the ion-electron system (eV)
  ---------------------------------------------------
  alpha Z        PSCENC =        81.87842481
  Ewald energy   TEWEN  =      -918.38662708
  -Hartree energ DENC   =       -50.37463692
  -exchange      EXHF   =         0.00000000
  -V(xc)+E(xc)   XCENC  =         4.91496651
  PAW double counting   =       696.70595042     -667.45827301
  entropy T*S    EENTRO =        -0.00400233
  eigenvalues    EBANDS =       120.89350273
  atomic energy  EATOM  =       728.31920932
  Solvation  Ediel_sol  =         0.00000000
  ---------------------------------------------------
  free energy    TOTEN  =        -3.51148556 eV

  energy without entropy =       -3.50748323  energy(sigma->0) =       -3.50948439


--------------------------------------------------------------------------------------------------------




--------------------------------------- Iteration      1(   3)  ---------------------------------------


     EDDAV:  cpu time    0.7321: real time    0.7333
       DOS:  cpu time    0.0021: real time    0.0021
    --------------------------------------------
      LOOP:  cpu time    0.7342: real time    0.7355

 eigenvalue-minimisations  :  5208
 total energy-change (2. order) :-0.5236785E+00  (-0.5226114E+00)
 number of electron      10.0000000 magnetization 
 augmentation part       10.0000000 magnetization 

 Free energy of the ion-electron system (eV)
  ---------------------------------------------------
  alpha Z        PSCENC =        81.87842481
  Ewald energy   TEWEN  =      -918.38662708
  -Hartree energ DENC   =       -50.37463692
  -exchange      EXHF   =         0.00000000
  -V(xc)+E(xc)   XCENC  =         4.91496651
  PAW double counting   =       696.70595042     -667.45827301
  entropy T*S    EENTRO =        -0.00460051
  eigenvalues    EBANDS =       120.37042239
  atomic energy  EATOM  =       728.31920932
  Solvation  Ediel_sol  =         0.00000000
  ---------------------------------------------------
  free energy    TOTEN  =        -4.03516408 eV

  energy without entropy =       -4.03056357  energy(sigma->0) =       -4.03286382


--------------------------------------------------------------------------------------------------------




--------------------------------------- Iteration      1(   4)  ---------------------------------------


     EDDAV:  cpu time    0.7317: real time    0.7357
       DOS:  cpu time    0.0021: real time    0.0021
    --------------------------------------------
      LOOP:  cpu time    0.7338: real time    0.7378

 eigenvalue-minimisations  :  5300
 total energy-change (2. order) :-0.1653564E-02  (-0.1653431E-02)
 number of electron      10.0000000 magnetization 
 augmentation part       10.0000000 magnetization 

 Free energy of the ion-electron system (eV)
  ---------------------------------------------------
  alpha Z        PSCENC =        81.87842481
  Ewald energy   TEWEN  =      -918.38662708
  -Hartree energ DENC   =       -50.37463692
  -exchange      EXHF   =         0.00000000
  -V(xc)+E(xc)   XCENC  =         4.91496651
  PAW double counting   =       696.70595042     -667.45827301
  entropy T*S    EENTRO =        -0.00460112
  eigenvalues    EBANDS =       120.36876943
  atomic energy  EATOM  =       728.31920932
  Solvation  Ediel_sol  =         0.00000000
  ---------------------------------------------------
  free energy    TOTEN  =        -4.03681764 eV

  energy without entropy =       -4.03221652  energy(sigma->0) =       -4.03451708


--------------------------------------------------------------------------------------------------------




--------------------------------------- Iteration      1(   5)  ---------------------------------------


     EDDAV:  cpu time    0.7353: real time    0.7394
       DOS:  cpu time    0.0021: real time    0.0021
    CHARGE:  cpu time    0.0123: real time    0.0123
    MIXING:  cpu time    0.0002: real time    0.0002
    --------------------------------------------
      LOOP:  cpu time    0.7499: real time    0.7541

 eigenvalue-minimisations  :  5268
 total energy-change (2. order) :-0.9077188E-05  (-0.9074221E-05)
 number of electron      10.0000004 magnetization 
 augmentation part        2.9717533 magnetization 

 Broyden mixing:
  rms(total) = 0.28532E+01    rms(broyden)= 0.28532E+01
  rms(prec ) = 0.31258E+01
  weight for this iteration     100.00

 Free energy of the ion-electron system (eV)
  ---------------------------------------------------
  alpha Z        PSCENC =        81.87842481
  Ewald energy   TEWEN  =      -918.38662708
  -Hartree energ DENC   =       -50.37463692
  -exchange      EXHF   =         0.00000000
  -V(xc)+E(xc)   XCENC  =         4.91496651
  PAW double counting   =       696.70595042     -667.45827301
  entropy T*S    EENTRO =        -0.00460112
  eigenvalues    EBANDS =       120.36876036
  atomic energy  EATOM  =       728.31920932
  Solvation  Ediel_sol  =         0.00000000
  ---------------------------------------------------
  free energy    TOTEN  =        -4.03682672 eV

  energy without entropy =       -4.03222560  energy(sigma->0) =       -4.03452616


--------------------------------------------------------------------------------------------------------




--------------------------------------- Iteration      1(   6)  ---------------------------------------


    POTLOK:  cpu time    0.0034: real time    0.0034
    SETDIJ:  cpu time    0.0044: real time    0.0044
     EDDAV:  cpu time    0.7325: real time    0.7338
       DOS:  cpu time    0.0021: real time    0.0021
    CHARGE:  cpu time    0.0114: real time    0.0114
    MIXING:  cpu time    0.0003: real time    0.0003
    --------------------------------------------
      LOOP:  cpu time    0.7541: real time    0.7553

 eigenvalue-minimisations  :  5300
 total energy-change (2. order) : 0.2077645E+00  (-0.1861825E-01)
 number of electron      10.0000004 magnetization 
 augmentation part        3.0284922 magnetization 

 Broyden mixing:
  rms(total) = 0.16104E+01    rms(broyden)= 0.16104E+01
  rms(prec ) = 0.17111E+01
  weight for this iteration     100.00

 eigenvalues of (default mixing * dielectric matrix)
  average eigenvalue GAMMA=   2.2895
  2.2895

 Free energy of the ion-electron system (eV)
  ---------------------------------------------------
  alpha Z        PSCENC =        81.87842481
  Ewald energy   TEWEN  =      -918.38662708
  -Hartree energ DENC   =       -45.79419002
  -exchange      EXHF   =         0.00000000
  -V(xc)+E(xc)   XCENC  =         4.78522627
  PAW double counting   =       934.91706802     -907.94346840
  entropy T*S    EENTRO =        -0.00485498
  eigenvalues    EBANDS =       118.40014983
  atomic energy  EATOM  =       728.31920932
  Solvation  Ediel_sol  =         0.00000000
  ---------------------------------------------------
  free energy    TOTEN  =        -3.82906221 eV

  energy without entropy =       -3.82420724  energy(sigma->0) =       -3.82663473


--------------------------------------------------------------------------------------------------------




--------------------------------------- Iteration      1(   7)  ---------------------------------------


    POTLOK:  cpu time    0.0033: real time    0.0033
    SETDIJ:  cpu time    0.0038: real time    0.0038
     EDDAV:  cpu time    0.7307: real time    0.7322
       DOS:  cpu time    0.0021: real time    0.0021
    CHARGE:  cpu time    0.0111: real time    0.0112
    MIXING:  cpu time    0.0004: real time    0.0004
    --------------------------------------------
      LOOP:  cpu time    0.7515: real time    0.7530

 eigenvalue-minimisations  :  5340
 total energy-change (2. order) : 0.7466754E-01  (-0.1468212E-01)
 number of electron      10.0000004 magnetization 
 augmentation part        3.0785399 magnetization 

 Broyden mixing:
  rms(total) = 0.15574E+00    rms(broyden)= 0.15574E+00
  rms(prec ) = 0.17950E+00
  weight for this iteration     100.00

 eigenvalues of (default mixing * dielectric matrix)
  average eigenvalue GAMMA=   2.1520
  1.6556  2.6484

 Free energy of the ion-electron system (eV)
  ---------------------------------------------------
  alpha Z        PSCENC =        81.87842481
  Ewald energy   TEWEN  =      -918.38662708
  -Hartree energ DENC   =       -41.51601815
  -exchange      EXHF   =         0.00000000
  -V(xc)+E(xc)   XCENC  =         4.67378931
  PAW double counting   =      1294.14397082    -1269.85189530
  entropy T*S    EENTRO =        -0.00474405
  eigenvalues    EBANDS =       116.98949565
  atomic energy  EATOM  =       728.31920932
  Solvation  Ediel_sol  =         0.00000000
  ---------------------------------------------------
  free energy    TOTEN  =        -3.75439467 eV

  energy without entropy =       -3.74965062  energy(sigma->0) =       -3.75202265


--------------------------------------------------------------------------------------------------------




--------------------------------------- Iteration      1(   8)  ---------------------------------------


    POTLOK:  cpu time    0.0032: real time    0.0032
    SETDIJ:  cpu time    0.0037: real time    0.0037
     EDDAV:  cpu time    0.6863: real time    0.6930
       DOS:  cpu time    0.0021: real time    0.0021
    CHARGE:  cpu time    0.0118: real time    0.0118
    MIXING:  cpu time    0.0003: real time    0.0003
    --------------------------------------------
      LOOP:  cpu time    0.7073: real time    0.7140

 eigenvalue-minimisations  :  4904
 total energy-change (2. order) : 0.3370378E-02  (-0.1051596E-02)
 number of electron      10.0000004 magnetization 
 augmentation part        3.0679031 magnetization 

 Broyden mixing:
  rms(total) = 0.29708E-01    rms(broyden)= 0.29708E-01
  rms(prec ) = 0.29895E-01
  weight for this iteration     100.00

 eigenvalues of (default mixing * dielectric matrix)
  average eigenvalue GAMMA=   1.7079
  1.0523  2.4714  1.5999

 Free energy of the ion-electron system (eV)
  ---------------------------------------------------
  alpha Z        PSCENC =        81.87842481
  Ewald energy   TEWEN  =      -918.38662708
  -Hartree energ DENC   =       -41.88854779
  -exchange      EXHF   =         0.00000000
  -V(xc)+E(xc)   XCENC  =         4.68499583
  PAW double counting   =      1338.74440962    -1314.74324394
  entropy T*S    EENTRO =        -0.00475425
  eigenvalues    EBANDS =       117.64510919
  atomic energy  EATOM  =       728.31920932
  Solvation  Ediel_sol  =         0.00000000
  ---------------------------------------------------
  free energy    TOTEN  =        -3.75102429 eV

  energy without entropy =       -3.74627004  energy(sigma->0) =       -3.74864717


--------------------------------------------------------------------------------------------------------




--------------------------------------- Iteration      1(   9)  ---------------------------------------


    POTLOK:  cpu time    0.0032: real time    0.0032
    SETDIJ:  cpu time    0.0040: real time    0.0040
     EDDAV:  cpu time    0.6954: real time    0.6966
       DOS:  cpu time    0.0021: real time    0.0021
    --------------------------------------------
      LOOP:  cpu time    0.7046: real time    0.7059

 eigenvalue-minimisations  :  4792
 total energy-change (2. order) : 0.3538142E-04  (-0.9634276E-05)
 number of electron      10.0000004 magnetization 
 augmentation part        3.0679031 magnetization 

 Free energy of the ion-electron system (eV)
  ---------------------------------------------------
  alpha Z        PSCENC =        81.87842481
  Ewald energy   TEWEN  =      -918.38662708
  -Hartree energ DENC   =       -41.89516716
  -exchange      EXHF   =         0.00000000
  -V(xc)+E(xc)   XCENC  =         4.68521280
  PAW double counting   =      1331.43690432    -1307.37397764
  entropy T*S    EENTRO =        -0.00475234
  eigenvalues    EBANDS =       117.58978405
  atomic energy  EATOM  =       728.31920932
  Solvation  Ediel_sol  =         0.00000000
  ---------------------------------------------------
  free energy    TOTEN  =        -3.75098891 eV

  energy without entropy =       -3.74623657  energy(sigma->0) =       -3.74861274


--------------------------------------------------------------------------------------------------------




 average (electrostatic) potential at core
  the test charge radii are     1.2059
  (the norm of the test charge is              1.0000)
       1 -58.1096
 
 
 
 E-fermi :  17.3833     XC(G=0): -15.0683     alpha+bet :-21.5817

 Fermi energy:        17.3833242603

 k-point     1 :       0.0000    0.0000    0.0000
  band No.  band energies     occupation 
      1       3.6833      2.00000
      2      11.4142      2.00000
      3      11.4143      2.00000
      4      11.4143      2.00000
      5      14.7245      2.00000
      6      14.7245      2.00000
      7      30.5004      0.00000
      8      37.0710      0.00000
      9      37.0713      0.00000
     10      37.0713      0.00000
     11      43.4510      0.00000
     12      48.8194      0.00000

[...]
      1       7.8399      2.00000
      2       8.3886      2.00000
      3      12.6358      2.00000
      4      15.5853      2.00000
      5      17.4199      0.30133
      6      22.1509      0.00000
      7      27.8815      0.00000
      8      29.7626      0.00000
      9      32.6634      0.00000
     10      42.8785      0.00000
     11      43.3946      0.00000
     12      47.2887      0.00000

 k-point   150 :       0.1429   -0.4286    0.4286
  band No.  band energies     occupation 
      1       7.8399      2.00000
      2       8.3886      2.00000
      3      12.6358      2.00000
      4      15.5853      2.00000
      5      17.4199      0.30132
      6      22.1509      0.00000
      7      27.8815      0.00000
      8      29.7626      0.00000
      9      32.6634      0.00000
     10      42.8785      0.00000
     11      43.3946      0.00000
     12      47.2887      0.00000

 k-point   151 :       0.4286    0.1429   -0.4286
  band No.  band energies     occupation 
      1       7.8399      2.00000
      2       8.3886      2.00000
      3      12.6358      2.00000
      4      15.5853      2.00000
      5      17.4199      0.30132
      6      22.1509      0.00000
      7      27.8815      0.00000
      8      29.7626      0.00000
      9      32.6634      0.00000
     10      42.8785      0.00000
     11      43.3946      0.00000
     12      47.2887      0.00000

 k-point   152 :       0.4286    0.2857   -0.1429
  band No.  band energies     occupation 
      1       7.8399      2.00000
      2       8.3886      2.00000
      3      12.6358      2.00000
      4      15.5853      2.00000
      5      17.4199      0.30149
      6      22.1510      0.00000
      7      27.8815      0.00000
      8      29.7626      0.00000
      9      32.6633      0.00000
     10      42.8784      0.00000
     11      43.3946      0.00000
     12      47.2887      0.00000

 k-point   153 :      -0.4286    0.1429    0.4286
  band No.  band energies     occupation 
      1       7.8399      2.00000
      2       8.3886      2.00000
      3      12.6358      2.00000
      4      15.5853      2.00000
      5      17.4199      0.30130
      6      22.1509      0.00000
      7      27.8815      0.00000
      8      29.7626      0.00000
      9      32.6634      0.00000
     10      42.8785      0.00000
     11      43.3946      0.00000
     12      47.2887      0.00000

 k-point   154 :       0.1429   -0.4286   -0.2857
  band No.  band energies     occupation 
      1       7.8399      2.00000
      2       8.3886      2.00000
      3      12.6358      2.00000
      4      15.5853      2.00000
      5      17.4199      0.30150
      6      22.1510      0.00000
      7      27.8815      0.00000
      8      29.7626      0.00000
      9      32.6633      0.00000
     10      42.8784      0.00000
     11      43.3946      0.00000
     12      47.2887      0.00000

 k-point   155 :       0.2857    0.4286   -0.1429
  band No.  band energies     occupation 
      1       7.8399      2.00000
      2       8.3886      2.00000
      3      12.6358      2.00000
      4      15.5853      2.00000
      5      17.4199      0.30152
      6      22.1510      0.00000
      7      27.8815      0.00000
      8      29.7626      0.00000
      9      32.6633      0.00000
     10      42.8784      0.00000
     11      43.3946      0.00000
     12      47.2887      0.00000

 k-point   156 :       0.1429   -0.2857   -0.4286
  band No.  band energies     occupation 
      1       7.8399      2.00000
      2       8.3886      2.00000
      3      12.6358      2.00000
      4      15.5853      2.00000
      5      17.4199      0.30147
      6      22.1510      0.00000
      7      27.8815      0.00000
      8      29.7626      0.00000
      9      32.6633      0.00000
     10      42.8784      0.00000
     11      43.3946      0.00000
     12      47.2887      0.00000

 k-point   157 :       0.4286   -0.4286    0.1429
  band No.  band energies     occupation 
      1       7.8399      2.00000
      2       8.3886      2.00000
      3      12.6358      2.00000
      4      15.5853      2.00000
      5      17.4199      0.30133
      6      22.1509      0.00000
      7      27.8815      0.00000
      8      29.7626      0.00000
      9      32.6634      0.00000
     10      42.8785      0.00000
     11      43.3946      0.00000
     12      47.2887      0.00000

 k-point   158 :      -0.2857    0.1429   -0.4286
  band No.  band energies     occupation 
      1       7.8399      2.00000
      2       8.3886      2.00000
      3      12.6358      2.00000
      4      15.5853      2.00000
      5      17.4199      0.30149
      6      22.1510      0.00000
      7      27.8815      0.00000
      8      29.7626      0.00000
      9      32.6633      0.00000
     10      42.8784      0.00000
     11      43.3946      0.00000
     12      47.2887      0.00000

 k-point   159 :      -0.4286    0.1429   -0.2857
  band No.  band energies     occupation 
      1       7.8399      2.00000
      2       8.3886      2.00000
      3      12.6358      2.00000
      4      15.5853      2.00000
      5      17.4199      0.30148
      6      22.1510      0.00000
      7      27.8815      0.00000
      8      29.7626      0.00000
      9      32.6633      0.00000
     10      42.8784      0.00000
     11      43.3946      0.00000
     12      47.2887      0.00000

 k-point   160 :       0.1429    0.4286   -0.4286
  band No.  band energies     occupation 
      1       7.8399      2.00000
      2       8.3886      2.00000
      3      12.6358      2.00000
      4      15.5853      2.00000
      5      17.4199      0.30134
      6      22.1509      0.00000
      7      27.8815      0.00000
      8      29.7626      0.00000
      9      32.6634      0.00000
     10      42.8785      0.00000
     11      43.3946      0.00000
     12      47.2887      0.00000

 k-point   161 :      -0.2857    0.4286    0.1429
  band No.  band energies     occupation 
      1       8.5299      2.00000
      2       9.6104      2.00000
      3      11.2009      2.00000
      4      14.2064      2.00000
      5      17.4121      0.41601
      6      24.3159      0.00000
      7      26.9150      0.00000
      8      28.9898      0.00000
      9      32.9647      0.00000
     10      41.6466      0.00000
     11      44.4281      0.00000
     12      48.5047      0.00000

 k-point   162 :       0.1429   -0.2857    0.4286
  band No.  band energies     occupation 
      1       8.5299      2.00000
      2       9.6104      2.00000
      3      11.2009      2.00000
      4      14.2064      2.00000
      5      17.4121      0.41600
      6      24.3159      0.00000
      7      26.9150      0.00000
      8      28.9898      0.00000
      9      32.9647      0.00000
     10      41.6466      0.00000
     11      44.4281      0.00000
     12      48.5049      0.00000

 k-point   163 :       0.4286    0.1429   -0.2857
  band No.  band energies     occupation 
      1       8.5299      2.00000
      2       9.6104      2.00000
      3      11.2009      2.00000
      4      14.2064      2.00000
      5      17.4121      0.41598
      6      24.3159      0.00000
      7      26.9150      0.00000
      8      28.9898      0.00000
      9      32.9647      0.00000
     10      41.6466      0.00000
     11      44.4281      0.00000
     12      48.5049      0.00000

 k-point   164 :       0.4286    0.2857   -0.2857
  band No.  band energies     occupation 
      1       8.5299      2.00000
      2       9.6103      2.00000
      3      11.2009      2.00000
      4      14.2065      2.00000
      5      17.4121      0.41582
      6      24.3158      0.00000
      7      26.9150      0.00000
      8      28.9898      0.00000
      9      32.9648      0.00000
     10      41.6467      0.00000
     11      44.4281      0.00000
     12      48.5046      0.00000

 k-point   165 :      -0.2857    0.2857   -0.4286
  band No.  band energies     occupation 
      1       8.5299      2.00000
      2       9.6103      2.00000
      3      11.2009      2.00000
      4      14.2065      2.00000
      5      17.4121      0.41582
      6      24.3158      0.00000
      7      26.9150      0.00000
      8      28.9898      0.00000
      9      32.9648      0.00000
     10      41.6467      0.00000
     11      44.4281      0.00000
     12      48.5047      0.00000

 k-point   166 :       0.1429    0.4286   -0.2857
  band No.  band energies     occupation 
      1       8.5299      2.00000
      2       9.6104      2.00000
      3      11.2009      2.00000
      4      14.2064      2.00000
      5      17.4121      0.41603
      6      24.3159      0.00000
      7      26.9150      0.00000
      8      28.9898      0.00000
      9      32.9647      0.00000
     10      41.6466      0.00000
     11      44.4281      0.00000
     12      48.5052      0.00000

 k-point   167 :       0.2857   -0.2857   -0.4286
  band No.  band energies     occupation 
      1       8.5299      2.00000
      2       9.6103      2.00000
      3      11.2009      2.00000
      4      14.2065      2.00000
      5      17.4121      0.41579
      6      24.3158      0.00000
      7      26.9150      0.00000
      8      28.9898      0.00000
      9      32.9648      0.00000
     10      41.6467      0.00000
     11      44.4281      0.00000
     12      48.5046      0.00000

 k-point   168 :       0.4286   -0.2857    0.2857
  band No.  band energies     occupation 
      1       8.5299      2.00000
      2       9.6103      2.00000
      3      11.2009      2.00000
      4      14.2065      2.00000
      5      17.4121      0.41583
      6      24.3158      0.00000
      7      26.9150      0.00000
      8      28.9898      0.00000
      9      32.9648      0.00000
     10      41.6467      0.00000
     11      44.4281      0.00000
     12      48.5046      0.00000

 k-point   169 :      -0.2857    0.1429    0.4286
  band No.  band energies     occupation 
      1       8.5299      2.00000
      2       9.6104      2.00000
      3      11.2009      2.00000
      4      14.2064      2.00000
      5      17.4121      0.41597
      6      24.3159      0.00000
      7      26.9150      0.00000
      8      28.9898      0.00000
      9      32.9647      0.00000
     10      41.6466      0.00000
     11      44.4281      0.00000
     12      48.5048      0.00000

 k-point   170 :      -0.2857    0.4286    0.2857
  band No.  band energies     occupation 
      1       8.5299      2.00000
      2       9.6103      2.00000
      3      11.2009      2.00000
      4      14.2065      2.00000
      5      17.4121      0.41581
      6      24.3158      0.00000
      7      26.9150      0.00000
      8      28.9898      0.00000
      9      32.9648      0.00000
     10      41.6467      0.00000
     11      44.4281      0.00000
     12      48.5048      0.00000

 k-point   171 :       0.2857    0.4286   -0.2857
  band No.  band energies     occupation 
      1       8.5299      2.00000
      2       9.6103      2.00000
      3      11.2009      2.00000
      4      14.2065      2.00000
      5      17.4121      0.41584
      6      24.3158      0.00000
      7      26.9150      0.00000
      8      28.9898      0.00000
      9      32.9648      0.00000
     10      41.6467      0.00000
     11      44.4281      0.00000
     12      48.5047      0.00000

 k-point   172 :       0.4286   -0.2857    0.1429
  band No.  band energies     occupation 
      1       8.5299      2.00000
      2       9.6104      2.00000
      3      11.2009      2.00000
      4      14.2064      2.00000
      5      17.4121      0.41600
      6      24.3159      0.00000
      7      26.9150      0.00000
      8      28.9898      0.00000
      9      32.9647      0.00000
     10      41.6466      0.00000
     11      44.4281      0.00000
     12      48.5047      0.00000


--------------------------------------------------------------------------------------------------------


 soft charge-density along one line, spin component            1
         0         1         2         3         4         5         6         7         8         9
 total charge-density along one line
 
 pseudopotential strength for first ion, spin component:            1
 -0.534   0.000  -0.020   0.000   0.012  -0.803   0.000  -0.020
  0.000  -0.534   0.000  -0.024  -0.000   0.000  -0.803   0.000
 -0.020   0.000  -0.555   0.000  -0.007  -0.020   0.000  -0.823
  0.000  -0.024   0.000  -0.550   0.000   0.000  -0.023   0.000
  0.012  -0.000  -0.007   0.000  -0.563   0.012  -0.000  -0.007
 -0.803   0.000  -0.020   0.000   0.012  -1.052   0.000  -0.020
  0.000  -0.803   0.000  -0.023  -0.000   0.000  -1.052   0.000
 -0.020   0.000  -0.823   0.000  -0.007  -0.020   0.000  -1.072
  0.000  -0.023   0.000  -0.819   0.000   0.000  -0.023   0.000
  0.012  -0.000  -0.007   0.000  -0.832   0.011  -0.000  -0.007
 -0.000  -0.000  -0.000  -0.000  -0.000  -0.000  -0.000  -0.000
 -0.000  -0.000  -0.000  -0.000  -0.000  -0.000  -0.000  -0.000
 -0.000   0.000   0.000   0.000  -0.000  -0.000   0.000   0.000
  0.000   0.000   0.000  -0.000  -0.000   0.000   0.000   0.000
  0.000   0.000   0.000   0.000  -0.000   0.000   0.000   0.000
 -0.000   0.000   0.000   0.000  -0.000  -0.000   0.000   0.000
  0.000   0.000   0.000  -0.000  -0.000   0.000   0.000   0.000
  0.000   0.000   0.000   0.000  -0.000   0.000   0.000   0.000
 total augmentation occupancy for first ion, spin component:            1
  8.907   0.000  -0.423   0.000   0.244  -7.793  -0.000   0.043  -0.000  -0.025   0.000  -0.000   0.000  -0.000   0.000  -0.000
  0.000   8.907  -0.000  -0.488  -0.000  -0.000  -7.793   0.000   0.049   0.000   0.000  -0.000  -0.000   0.000  -0.000   0.000
 -0.423  -0.000   8.475  -0.000  -0.150   0.043   0.000  -7.750   0.000   0.015   0.000   0.000   0.000   0.000   0.000  -0.000
  0.000  -0.488  -0.000   8.562   0.000  -0.000   0.049   0.000  -7.758  -0.000   0.000  -0.000   0.000   0.000   0.000  -0.000
  0.244  -0.000  -0.150   0.000   8.303  -0.025   0.000   0.015  -0.000  -7.732  -0.000   0.000   0.000   0.000  -0.000  -0.000
 -7.793  -0.000   0.043  -0.000  -0.025   8.498   0.000   0.261   0.000  -0.151  -0.000   0.000   0.000   0.000  -0.000  -0.000
 -0.000  -7.793   0.000   0.049   0.000   0.000   8.498  -0.000   0.302  -0.000  -0.000   0.000   0.000  -0.000   0.000  -0.000
  0.043   0.000  -7.750   0.000   0.015   0.261  -0.000   8.765   0.000   0.092  -0.000  -0.000  -0.000  -0.000  -0.000   0.000
 -0.000   0.049   0.000  -7.758  -0.000   0.000   0.302   0.000   8.711   0.000  -0.000   0.000  -0.000   0.000  -0.000   0.000
 -0.025   0.000   0.015  -0.000  -7.732  -0.151  -0.000   0.092   0.000   8.871  -0.000  -0.000  -0.000  -0.000  -0.000   0.000
  0.000   0.000   0.000   0.000  -0.000  -0.000  -0.000  -0.000  -0.000  -0.000   4.276  -1.248   0.000  -0.000   0.000  -0.000
 -0.000  -0.000   0.000  -0.000   0.000   0.000   0.000  -0.000   0.000  -0.000  -1.248   0.390  -0.000   0.000  -0.000   0.000
  0.000  -0.000   0.000   0.000   0.000   0.000   0.000  -0.000  -0.000  -0.000   0.000  -0.000   0.520   0.000  -0.000  -0.027
 -0.000   0.000   0.000   0.000   0.000   0.000  -0.000  -0.000   0.000  -0.000  -0.000   0.000   0.000   0.520  -0.000  -0.000
  0.000  -0.000   0.000   0.000  -0.000  -0.000   0.000  -0.000  -0.000  -0.000   0.000  -0.000  -0.000  -0.000   0.520  -0.000
 -0.000   0.000  -0.000  -0.000  -0.000  -0.000  -0.000   0.000   0.000   0.000  -0.000   0.000  -0.027  -0.000  -0.000   0.002
  0.000  -0.000   0.000  -0.000  -0.000  -0.000   0.000   0.000  -0.000   0.000  -0.000   0.000  -0.000  -0.027   0.000   0.000
 -0.000   0.000  -0.000  -0.000   0.000   0.000  -0.000   0.000   0.000   0.000  -0.000   0.000   0.000  -0.000  -0.027   0.000


------------------------ aborting loop because EDIFF is reached ----------------------------------------





 total charge

# of ion       s       p       d       tot
------------------------------------------
    1        0.814   1.027   8.417  10.257
 
    CHARGE:  cpu time    0.0109: real time    0.0109
    FORLOC:  cpu time    0.0001: real time    0.0001
    FORNL :  cpu time    0.0285: real time    0.0286
    FORCOR:  cpu time    0.0065: real time    0.0065
    FORHAR:  cpu time    0.0008: real time    0.0008
    MIXING:  cpu time    0.0005: real time    0.0005
    OFIELD:  cpu time    0.0000: real time    0.0000

 VOLUME and BASIS-vectors are now :
 -----------------------------------------------------------------------------
  energy-cutoff  :      420.00
  volume of cell :       11.61
      direct lattice vectors                 reciprocal lattice vectors
     2.201115000  0.000004000  1.270827000     0.454315965 -0.160625784 -0.000000820
     0.733710000  2.075228000  1.270827000    -0.000000438  0.481875382 -0.000000758
     0.000006000  0.000004000  2.541634000    -0.227159551 -0.160626063  0.393448469

  length of vectors
     2.541635007  2.541633900  2.541634000     0.481875127  0.481875382  0.481875390


 FORCES acting on ions
    electron-ion (+dipol)            ewald-force                    non-local-force                 convergence-correction
 -----------------------------------------------------------------------------------------------
   -.266E-04 -.100E-04 0.620E-04   -.337E-14 -.772E-15 -.798E-15   -.140E-05 0.223E-04 -.237E-04   0.256E-04 -.441E-05 -.473E-04
 -----------------------------------------------------------------------------------------------
   -.266E-04 -.100E-04 0.620E-04   -.337E-14 -.772E-15 -.798E-15   -.140E-05 0.223E-04 -.237E-04   0.256E-04 -.441E-05 -.473E-04
 
 
 POSITION                                       TOTAL-FORCE (eV/Angst)
 -----------------------------------------------------------------------------------
      0.00000      0.00000      0.00000        -0.000002      0.000008     -0.000009
 -----------------------------------------------------------------------------------
    total drift:                               -0.000002      0.000008     -0.000009


--------------------------------------------------------------------------------------------------------



  FREE ENERGIE OF THE ION-ELECTRON SYSTEM (eV)
  ---------------------------------------------------
  free  energy   TOTEN  =        -3.75098891 eV

  energy  without entropy=       -3.74623657  energy(sigma->0) =       -3.74861274
 


--------------------------------------------------------------------------------------------------------


    POTLOK:  cpu time    0.0069: real time    0.0069


--------------------------------------------------------------------------------------------------------


     LOOP+:  cpu time    6.5890: real time    6.6142
    4ORBIT:  cpu time    0.0000: real time    0.0000



 total charge

# of ion       s       p       d       tot
------------------------------------------
    1        0.814   1.027   8.417  10.257
 

 total amount of memory used by VASP MPI-rank0    32485. kBytes
=======================================================================

   base      :      30000. kBytes
   nonl-proj :       1586. kBytes
   fftplans  :         80. kBytes
   grid      :        111. kBytes
   one-center:         15. kBytes
   wavefun   :        693. kBytes
 
  
  
 General timing and accounting informations for this job:
 ========================================================
  
                  Total CPU time used (sec):        7.684
                            User time (sec):        7.427
                          System time (sec):        0.257
                         Elapsed time (sec):       13.010
  
                   Maximum memory used (kb):       54768.
                   Average memory used (kb):          N/A
  
                          Minor page faults:         8152
                          Major page faults:          444
                 Voluntary context switches:         5832
