 running on   16 total cores
 distrk:  each k-point on   16 cores,    1 groups
 distr:  one band on    4 cores,    4 groups
 vasp.6.2.0 18Jan21 (build Feb  1 2022 01:28:57) complex                         
 POSCAR found type information on POSCAR Pt
 POSCAR found :  1 types and       1 ions
 scaLAPACK will be used
 -----------------------------------------------------------------------------
|                                                                             |
|               ----> ADVICE to this user running VASP <----                  |
|                                                                             |
|     You enforced a specific xc type in the INCAR file but a different       |
|     type was found in the POTCAR file.                                      |
|     I HOPE YOU KNOW WHAT YOU ARE DOING!                                     |
|                                                                             |
 -----------------------------------------------------------------------------

 LDA part: xc-table for Pade appr. of Perdew
 -----------------------------------------------------------------------------
|                                                                             |
|           W    W    AA    RRRRR   N    N  II  N    N   GGGG   !!!           |
|           W    W   A  A   R    R  NN   N  II  NN   N  G    G  !!!           |
|           W    W  A    A  R    R  N N  N  II  N N  N  G       !!!           |
|           W WW W  AAAAAA  RRRRR   N  N N  II  N  N N  G  GGG   !            |
|           WW  WW  A    A  R   R   N   NN  II  N   NN  G    G                |
|           W    W  A    A  R    R  N    N  II  N    N   GGGG   !!!           |
|                                                                             |
|     The requested file  could not be found or opened for reading            |
|     k-point information. Automatic k-point generation is used as a          |
|     fallback, which may lead to unwanted results.                           |
|                                                                             |
 -----------------------------------------------------------------------------

 POSCAR, INCAR and KPOINTS ok, starting setup
 FFT: planning ...
 WAVECAR not read
 entering main loop
       N       E                     dE             d eps       ncg     rms          rms(c)
DAV:   1     0.381779087997E+02    0.38178E+02   -0.47336E+03  4276   0.663E+02
DAV:   2    -0.351148555666E+01   -0.41689E+02   -0.40123E+02  4960   0.166E+02
DAV:   3    -0.403516407896E+01   -0.52368E+00   -0.52261E+00  5208   0.170E+01
DAV:   4    -0.403681764302E+01   -0.16536E-02   -0.16534E-02  5300   0.111E+00
DAV:   5    -0.403682672021E+01   -0.90772E-05   -0.90742E-05  5268   0.719E-02    0.285E+01
DAV:   6    -0.382906221492E+01    0.20776E+00   -0.18618E-01  5300   0.361E+00    0.161E+01
DAV:   7    -0.375439467045E+01    0.74668E-01   -0.14682E-01  5340   0.311E+00    0.156E+00
DAV:   8    -0.375102429209E+01    0.33704E-02   -0.10516E-02  4904   0.900E-01    0.297E-01
DAV:   9    -0.375098891067E+01    0.35381E-04   -0.96343E-05  4792   0.835E-02
   1 F= -.37509889E+01 E0= -.37486127E+01  d E =-.475234E-02
