<?xml version="1.0" encoding="ISO-8859-1"?>
<modeling>
 <generator>
  <i name="program" type="string">vasp </i>
  <i name="version" type="string">6.2.0  </i>
  <i name="subversion" type="string">18Jan21 (build Feb  1 2022 01:28:57) complex                          parallel </i>
  <i name="platform" type="string">LinuxPGI </i>
  <i name="date" type="string">2022 05 18 </i>
  <i name="time" type="string">19:39:53 </i>
 </generator>
 <incar>
  <i type="string" name="PREC">Normal</i>
  <i type="string" name="ALGO">38</i>
  <i type="int" name="ISPIN">     1</i>
  <i type="int" name="NELM">    60</i>
  <i type="int" name="NELMIN">     4</i>
  <i type="int" name="IBRION">     2</i>
  <i name="EDIFF">      0.00010000</i>
  <i name="EDIFFG">     -0.03000000</i>
  <i type="int" name="NSW">     0</i>
  <i type="int" name="ISIF">     0</i>
  <i type="int" name="ISYM">     0</i>
  <i name="SYMPREC">      0.00001000</i>
  <i name="ENCUT">    420.00000000</i>
  <i type="logical" name="LREAL"> F  </i>
  <i type="int" name="ISMEAR">     0</i>
  <i name="SIGMA">      0.05000000</i>
  <i type="logical" name="LWAVE"> F  </i>
  <i type="logical" name="LVTOT"> F  </i>
  <i type="int" name="LORBIT">    11</i>
  <i type="logical" name="LASPH"> F  </i>
  <i type="string" name="GGA">RP</i>
 </incar>
 <primitive_cell>
  <structure name="primitive_cell" >
   <crystal>
    <varray name="basis" >
     <v>       2.20111500       0.00000400       1.27082700 </v>
     <v>       0.73371000       2.07522800       1.27082700 </v>
     <v>       0.00000600       0.00000400       2.54163400 </v>
    </varray>
    <i name="volume">     11.60968439 </i>
    <varray name="rec_basis" >
     <v>       0.45431596      -0.16062578      -0.00000082 </v>
     <v>      -0.00000044       0.48187538      -0.00000076 </v>
     <v>      -0.22715955      -0.16062606       0.39344847 </v>
    </varray>
   </crystal>
   <varray name="positions" >
    <v>       0.00000000       0.00000000       0.00000000 </v>
   </varray>
  </structure>
  <varray name="primitive_index" >
   <v type="int" >        1 </v>
  </varray>
 </primitive_cell>
 <kpoints>
  <generation param="Gamma">
   <v type="int" name="divisions">       7        7        7 </v>
   <v name="usershift">      0.00000000       0.00000000       0.00000000 </v>
   <v name="genvec1">      0.14285714      -0.00000000      -0.00000000 </v>
   <v name="genvec2">      0.00000000       0.14285714       0.00000000 </v>
   <v name="genvec3">     -0.00000000       0.00000000       0.14285714 </v>
   <v name="shift">      0.00000000       0.00000000       0.00000000 </v>
  </generation>
  <varray name="kpointlist" >
   <v>       0.00000000       0.00000000       0.00000000 </v>
   <v>       0.14285714       0.00000000       0.00000000 </v>
   <v>       0.00000000       0.14285714       0.00000000 </v>
   <v>       0.00000000       0.00000000       0.14285714 </v>
   <v>       0.14285714       0.14285714       0.14285714 </v>
   <v>       0.28571429       0.00000000       0.00000000 </v>
   <v>       0.00000000       0.28571429       0.00000000 </v>
   <v>       0.00000000       0.00000000       0.28571429 </v>
   <v>       0.28571429       0.28571429       0.28571429 </v>
   <v>       0.42857143       0.00000000       0.00000000 </v>
   <v>       0.00000000       0.42857143       0.00000000 </v>
   <v>       0.00000000       0.00000000       0.42857143 </v>
   <v>       0.42857143       0.42857143       0.42857143 </v>
   <v>       0.14285714       0.14285714       0.00000000 </v>
   <v>       0.00000000       0.14285714       0.14285714 </v>
   <v>       0.14285714       0.00000000       0.14285714 </v>
   <v>       0.28571429       0.14285714       0.00000000 </v>
   <v>       0.00000000       0.28571429       0.14285714 </v>
   <v>       0.14285714       0.00000000       0.28571429 </v>
   <v>       0.14285714       0.14285714      -0.14285714 </v>
   <v>       0.28571429       0.14285714       0.28571429 </v>
   <v>       0.14285714       0.28571429       0.00000000 </v>
   <v>       0.14285714      -0.14285714      -0.14285714 </v>
   <v>       0.28571429       0.28571429       0.14285714 </v>
   <v>       0.00000000       0.14285714       0.28571429 </v>
   <v>      -0.14285714       0.14285714      -0.14285714 </v>
   <v>       0.14285714       0.28571429       0.28571429 </v>
   <v>       0.28571429       0.00000000       0.14285714 </v>
   <v>       0.42857143       0.14285714       0.00000000 </v>
   <v>       0.00000000       0.42857143       0.14285714 </v>
   <v>       0.14285714       0.00000000       0.42857143 </v>
   <v>       0.14285714       0.14285714      -0.28571429 </v>
   <v>       0.42857143       0.28571429       0.42857143 </v>
   <v>       0.14285714       0.42857143       0.00000000 </v>
   <v>       0.28571429      -0.14285714      -0.14285714 </v>
   <v>       0.42857143       0.42857143       0.28571429 </v>
   <v>       0.00000000       0.14285714       0.42857143 </v>
   <v>      -0.14285714       0.28571429      -0.14285714 </v>
   <v>       0.28571429       0.42857143       0.42857143 </v>
   <v>       0.42857143       0.00000000       0.14285714 </v>
   <v>      -0.42857143       0.14285714       0.00000000 </v>
   <v>       0.00000000      -0.42857143       0.14285714 </v>
   <v>       0.14285714       0.00000000      -0.42857143 </v>
   <v>       0.14285714       0.14285714      -0.42857143 </v>
   <v>      -0.42857143       0.42857143      -0.42857143 </v>
   <v>       0.14285714      -0.42857143       0.00000000 </v>
   <v>       0.42857143      -0.14285714      -0.14285714 </v>
   <v>      -0.42857143      -0.42857143       0.42857143 </v>
   <v>       0.00000000       0.14285714      -0.42857143 </v>
   <v>      -0.14285714       0.42857143      -0.14285714 </v>
   <v>       0.42857143      -0.42857143      -0.42857143 </v>
   <v>      -0.42857143       0.00000000       0.14285714 </v>
   <v>      -0.28571429       0.14285714       0.00000000 </v>
   <v>       0.00000000      -0.28571429       0.14285714 </v>
   <v>       0.14285714       0.00000000      -0.28571429 </v>
   <v>       0.14285714       0.14285714       0.42857143 </v>
   <v>      -0.28571429      -0.42857143      -0.28571429 </v>
   <v>       0.14285714      -0.28571429       0.00000000 </v>
   <v>      -0.42857143      -0.14285714      -0.14285714 </v>
   <v>      -0.28571429      -0.28571429      -0.42857143 </v>
   <v>       0.00000000       0.14285714      -0.28571429 </v>
   <v>      -0.14285714      -0.42857143      -0.14285714 </v>
   <v>      -0.42857143      -0.28571429      -0.28571429 </v>
   <v>      -0.28571429       0.00000000       0.14285714 </v>
   <v>      -0.14285714       0.14285714       0.00000000 </v>
   <v>       0.00000000      -0.14285714       0.14285714 </v>
   <v>       0.14285714       0.00000000      -0.14285714 </v>
   <v>       0.14285714       0.14285714       0.28571429 </v>
   <v>      -0.14285714      -0.28571429      -0.14285714 </v>
   <v>      -0.28571429      -0.14285714      -0.14285714 </v>
   <v>       0.28571429       0.28571429       0.00000000 </v>
   <v>       0.00000000       0.28571429       0.28571429 </v>
   <v>       0.28571429       0.00000000       0.28571429 </v>
   <v>       0.42857143       0.28571429       0.00000000 </v>
   <v>       0.00000000       0.42857143       0.28571429 </v>
   <v>       0.28571429       0.00000000       0.42857143 </v>
   <v>       0.28571429       0.28571429      -0.14285714 </v>
   <v>       0.42857143       0.14285714       0.42857143 </v>
   <v>       0.28571429       0.42857143       0.00000000 </v>
   <v>       0.14285714      -0.28571429      -0.28571429 </v>
   <v>       0.42857143       0.42857143       0.14285714 </v>
   <v>       0.00000000       0.28571429       0.42857143 </v>
   <v>      -0.28571429       0.14285714      -0.28571429 </v>
   <v>       0.14285714       0.42857143       0.42857143 </v>
   <v>       0.42857143       0.00000000       0.28571429 </v>
   <v>      -0.42857143       0.28571429       0.00000000 </v>
   <v>       0.00000000      -0.42857143       0.28571429 </v>
   <v>       0.28571429       0.00000000      -0.42857143 </v>
   <v>       0.28571429       0.28571429      -0.28571429 </v>
   <v>      -0.42857143       0.28571429      -0.42857143 </v>
   <v>       0.28571429      -0.42857143       0.00000000 </v>
   <v>       0.28571429      -0.28571429      -0.28571429 </v>
   <v>      -0.42857143      -0.42857143       0.28571429 </v>
   <v>       0.00000000       0.28571429      -0.42857143 </v>
   <v>      -0.28571429       0.28571429      -0.28571429 </v>
   <v>       0.28571429      -0.42857143      -0.42857143 </v>
   <v>      -0.42857143       0.00000000       0.28571429 </v>
   <v>      -0.28571429       0.28571429       0.00000000 </v>
   <v>       0.00000000      -0.28571429       0.28571429 </v>
   <v>       0.28571429       0.00000000      -0.28571429 </v>
   <v>       0.28571429       0.28571429      -0.42857143 </v>
   <v>      -0.28571429       0.42857143      -0.28571429 </v>
   <v>       0.42857143      -0.28571429      -0.28571429 </v>
   <v>       0.42857143       0.42857143       0.00000000 </v>
   <v>       0.00000000       0.42857143       0.42857143 </v>
   <v>       0.42857143       0.00000000       0.42857143 </v>
   <v>      -0.42857143       0.42857143       0.00000000 </v>
   <v>       0.00000000      -0.42857143       0.42857143 </v>
   <v>       0.42857143       0.00000000      -0.42857143 </v>
   <v>       0.42857143       0.42857143      -0.14285714 </v>
   <v>      -0.42857143       0.14285714      -0.42857143 </v>
   <v>       0.14285714      -0.42857143      -0.42857143 </v>
   <v>       0.42857143       0.28571429       0.14285714 </v>
   <v>       0.14285714       0.42857143       0.28571429 </v>
   <v>       0.28571429       0.14285714       0.42857143 </v>
   <v>       0.28571429       0.14285714      -0.14285714 </v>
   <v>       0.42857143       0.14285714       0.28571429 </v>
   <v>       0.14285714      -0.28571429      -0.14285714 </v>
   <v>       0.14285714       0.28571429      -0.14285714 </v>
   <v>       0.14285714      -0.14285714      -0.28571429 </v>
   <v>       0.28571429       0.42857143       0.14285714 </v>
   <v>      -0.14285714       0.14285714      -0.28571429 </v>
   <v>      -0.28571429       0.14285714      -0.14285714 </v>
   <v>       0.14285714       0.28571429       0.42857143 </v>
   <v>      -0.42857143       0.28571429       0.14285714 </v>
   <v>       0.14285714      -0.42857143       0.28571429 </v>
   <v>       0.28571429       0.14285714      -0.42857143 </v>
   <v>       0.28571429       0.14285714      -0.28571429 </v>
   <v>      -0.42857143       0.28571429       0.42857143 </v>
   <v>       0.14285714      -0.42857143      -0.14285714 </v>
   <v>       0.14285714       0.42857143      -0.14285714 </v>
   <v>       0.28571429      -0.14285714      -0.28571429 </v>
   <v>      -0.42857143      -0.28571429       0.42857143 </v>
   <v>       0.42857143      -0.42857143       0.28571429 </v>
   <v>      -0.14285714       0.14285714      -0.42857143 </v>
   <v>      -0.28571429       0.28571429       0.14285714 </v>
   <v>      -0.14285714       0.14285714       0.42857143 </v>
   <v>      -0.28571429       0.28571429      -0.14285714 </v>
   <v>       0.42857143      -0.42857143      -0.28571429 </v>
   <v>       0.28571429       0.42857143      -0.42857143 </v>
   <v>      -0.42857143      -0.14285714       0.14285714 </v>
   <v>       0.14285714      -0.28571429       0.28571429 </v>
   <v>       0.42857143      -0.14285714       0.14285714 </v>
   <v>      -0.14285714      -0.28571429       0.28571429 </v>
   <v>      -0.28571429       0.42857143      -0.42857143 </v>
   <v>       0.42857143      -0.14285714      -0.28571429 </v>
   <v>      -0.28571429       0.42857143      -0.14285714 </v>
   <v>      -0.14285714      -0.28571429       0.42857143 </v>
   <v>      -0.42857143       0.42857143       0.14285714 </v>
   <v>       0.14285714      -0.42857143       0.42857143 </v>
   <v>       0.42857143       0.14285714      -0.42857143 </v>
   <v>       0.42857143       0.28571429      -0.14285714 </v>
   <v>      -0.42857143       0.14285714       0.42857143 </v>
   <v>       0.14285714      -0.42857143      -0.28571429 </v>
   <v>       0.28571429       0.42857143      -0.14285714 </v>
   <v>       0.14285714      -0.28571429      -0.42857143 </v>
   <v>       0.42857143      -0.42857143       0.14285714 </v>
   <v>      -0.28571429       0.14285714      -0.42857143 </v>
   <v>      -0.42857143       0.14285714      -0.28571429 </v>
   <v>       0.14285714       0.42857143      -0.42857143 </v>
   <v>      -0.28571429       0.42857143       0.14285714 </v>
   <v>       0.14285714      -0.28571429       0.42857143 </v>
   <v>       0.42857143       0.14285714      -0.28571429 </v>
   <v>       0.42857143       0.28571429      -0.28571429 </v>
   <v>      -0.28571429       0.28571429      -0.42857143 </v>
   <v>       0.14285714       0.42857143      -0.28571429 </v>
   <v>       0.28571429      -0.28571429      -0.42857143 </v>
   <v>       0.42857143      -0.28571429       0.28571429 </v>
   <v>      -0.28571429       0.14285714       0.42857143 </v>
   <v>      -0.28571429       0.42857143       0.28571429 </v>
   <v>       0.28571429       0.42857143      -0.28571429 </v>
   <v>       0.42857143      -0.28571429       0.14285714 </v>
  </varray>
  <varray name="weights" >
   <v>       0.00291545 </v>
   <v>       0.00583090 </v>
   <v>       0.00583090 </v>
   <v>       0.00583090 </v>
   <v>       0.00583090 </v>
   <v>       0.00583090 </v>
   <v>       0.00583090 </v>
   <v>       0.00583090 </v>
   <v>       0.00583090 </v>
   <v>       0.00583090 </v>
   <v>       0.00583090 </v>
   <v>       0.00583090 </v>
   <v>       0.00583090 </v>
   <v>       0.00583090 </v>
   <v>       0.00583090 </v>
   <v>       0.00583090 </v>
   <v>       0.00583090 </v>
   <v>       0.00583090 </v>
   <v>       0.00583090 </v>
   <v>       0.00583090 </v>
   <v>       0.00583090 </v>
   <v>       0.00583090 </v>
   <v>       0.00583090 </v>
   <v>       0.00583090 </v>
   <v>       0.00583090 </v>
   <v>       0.00583090 </v>
   <v>       0.00583090 </v>
   <v>       0.00583090 </v>
   <v>       0.00583090 </v>
   <v>       0.00583090 </v>
   <v>       0.00583090 </v>
   <v>       0.00583090 </v>
   <v>       0.00583090 </v>
   <v>       0.00583090 </v>
   <v>       0.00583090 </v>
   <v>       0.00583090 </v>
   <v>       0.00583090 </v>
   <v>       0.00583090 </v>
   <v>       0.00583090 </v>
   <v>       0.00583090 </v>
   <v>       0.00583090 </v>
   <v>       0.00583090 </v>
   <v>       0.00583090 </v>
   <v>       0.00583090 </v>
   <v>       0.00583090 </v>
   <v>       0.00583090 </v>
   <v>       0.00583090 </v>
   <v>       0.00583090 </v>
   <v>       0.00583090 </v>
   <v>       0.00583090 </v>
   <v>       0.00583090 </v>
   <v>       0.00583090 </v>
   <v>       0.00583090 </v>
   <v>       0.00583090 </v>
   <v>       0.00583090 </v>
   <v>       0.00583090 </v>
   <v>       0.00583090 </v>
   <v>       0.00583090 </v>
   <v>       0.00583090 </v>
   <v>       0.00583090 </v>
   <v>       0.00583090 </v>
   <v>       0.00583090 </v>
   <v>       0.00583090 </v>
   <v>       0.00583090 </v>
   <v>       0.00583090 </v>
   <v>       0.00583090 </v>
   <v>       0.00583090 </v>
   <v>       0.00583090 </v>
   <v>       0.00583090 </v>
   <v>       0.00583090 </v>
   <v>       0.00583090 </v>
   <v>       0.00583090 </v>
   <v>       0.00583090 </v>
   <v>       0.00583090 </v>
   <v>       0.00583090 </v>
   <v>       0.00583090 </v>
   <v>       0.00583090 </v>
   <v>       0.00583090 </v>
   <v>       0.00583090 </v>
   <v>       0.00583090 </v>
   <v>       0.00583090 </v>
   <v>       0.00583090 </v>
   <v>       0.00583090 </v>
   <v>       0.00583090 </v>
   <v>       0.00583090 </v>
   <v>       0.00583090 </v>
   <v>       0.00583090 </v>
   <v>       0.00583090 </v>
   <v>       0.00583090 </v>
   <v>       0.00583090 </v>
   <v>       0.00583090 </v>
   <v>       0.00583090 </v>
   <v>       0.00583090 </v>
   <v>       0.00583090 </v>
   <v>       0.00583090 </v>
   <v>       0.00583090 </v>
   <v>       0.00583090 </v>
   <v>       0.00583090 </v>
   <v>       0.00583090 </v>
   <v>       0.00583090 </v>
   <v>       0.00583090 </v>
   <v>       0.00583090 </v>
   <v>       0.00583090 </v>
   <v>       0.00583090 </v>
   <v>       0.00583090 </v>
   <v>       0.00583090 </v>
   <v>       0.00583090 </v>
   <v>       0.00583090 </v>
   <v>       0.00583090 </v>
   <v>       0.00583090 </v>
   <v>       0.00583090 </v>
   <v>       0.00583090 </v>
   <v>       0.00583090 </v>
   <v>       0.00583090 </v>
   <v>       0.00583090 </v>
   <v>       0.00583090 </v>
   <v>       0.00583090 </v>
   <v>       0.00583090 </v>
   <v>       0.00583090 </v>
   <v>       0.00583090 </v>
   <v>       0.00583090 </v>
   <v>       0.00583090 </v>
   <v>       0.00583090 </v>
   <v>       0.00583090 </v>
   <v>       0.00583090 </v>
   <v>       0.00583090 </v>
   <v>       0.00583090 </v>
   <v>       0.00583090 </v>
   <v>       0.00583090 </v>
   <v>       0.00583090 </v>
   <v>       0.00583090 </v>
   <v>       0.00583090 </v>
   <v>       0.00583090 </v>
   <v>       0.00583090 </v>
   <v>       0.00583090 </v>
   <v>       0.00583090 </v>
   <v>       0.00583090 </v>
   <v>       0.00583090 </v>
   <v>       0.00583090 </v>
   <v>       0.00583090 </v>
   <v>       0.00583090 </v>
   <v>       0.00583090 </v>
   <v>       0.00583090 </v>
   <v>       0.00583090 </v>
   <v>       0.00583090 </v>
   <v>       0.00583090 </v>
   <v>       0.00583090 </v>
   <v>       0.00583090 </v>
   <v>       0.00583090 </v>
   <v>       0.00583090 </v>
   <v>       0.00583090 </v>
   <v>       0.00583090 </v>
   <v>       0.00583090 </v>
   <v>       0.00583090 </v>
   <v>       0.00583090 </v>
   <v>       0.00583090 </v>
   <v>       0.00583090 </v>
   <v>       0.00583090 </v>
   <v>       0.00583090 </v>
   <v>       0.00583090 </v>
   <v>       0.00583090 </v>
   <v>       0.00583090 </v>
   <v>       0.00583090 </v>
   <v>       0.00583090 </v>
   <v>       0.00583090 </v>
   <v>       0.00583090 </v>
   <v>       0.00583090 </v>
   <v>       0.00583090 </v>
   <v>       0.00583090 </v>
   <v>       0.00583090 </v>
   <v>       0.00583090 </v>
   <v>       0.00583090 </v>
  </varray>
 </kpoints>
 <parameters>
  <separator name="general" >
   <i type="string" name="SYSTEM">unknown system</i>
   <i type="logical" name="LCOMPAT"> F  </i>
  </separator>
  <separator name="electronic" >
   <i type="string" name="PREC">normal</i>
   <i name="ENMAX">    420.00000000</i>
   <i name="ENAUG">    358.96600000</i>
   <i name="EDIFF">      0.00010000</i>
   <i type="int" name="IALGO">    38</i>
   <i type="int" name="IWAVPR">    10</i>
   <i type="int" name="NBANDS">    12</i>
   <i type="int" name="NBANDSLOW">    -1</i>
   <i type="int" name="NBANDSHIGH">    -1</i>
   <i name="NELECT">     10.00000000</i>
   <i type="int" name="TURBO">     0</i>
   <i type="int" name="IRESTART">     0</i>
   <i type="int" name="NREBOOT">     0</i>
   <i type="int" name="NMIN">     0</i>
   <i name="EREF">      0.00000000</i>
   <separator name="electronic smearing" >
    <i type="int" name="ISMEAR">     0</i>
    <i name="SIGMA">      0.05000000</i>
    <i name="KSPACING">      0.50000000</i>
    <i type="logical" name="KGAMMA"> T  </i>
    <i type="logical" name="KBLOWUP"> T  </i>
   </separator>
   <separator name="electronic projectors" >
    <i type="logical" name="LREAL"> F  </i>
    <v name="ROPT">      0.00000000</v>
    <i type="int" name="LMAXPAW">  -100</i>
    <i type="int" name="LMAXMIX">     2</i>
    <i type="logical" name="NLSPLINE"> F  </i>
   </separator>
   <separator name="electronic startup" >
    <i type="int" name="ISTART">     0</i>
    <i type="int" name="ICHARG">     2</i>
    <i type="int" name="INIWAV">     1</i>
   </separator>
   <separator name="electronic spin" >
    <i type="int" name="ISPIN">     1</i>
    <i type="logical" name="LNONCOLLINEAR"> F  </i>
    <v name="MAGMOM">      1.00000000</v>
    <i name="NUPDOWN">     -1.00000000</i>
    <i type="logical" name="LSORBIT"> F  </i>
    <v name="SAXIS">      0.00000000      0.00000000      1.00000000</v>
    <i type="logical" name="LSPIRAL"> F  </i>
    <v name="QSPIRAL">      0.00000000      0.00000000      0.00000000</v>
    <i type="logical" name="LZEROZ"> F  </i>
   </separator>
   <separator name="electronic exchange-correlation" >
    <i type="logical" name="LASPH"> F  </i>
    <i type="logical" name="LMETAGGA"> F  </i>
   </separator>
   <separator name="electronic convergence" >
    <i type="int" name="NELM">    60</i>
    <i type="int" name="NELMDL">    -5</i>
    <i type="int" name="NELMIN">     4</i>
    <i name="ENINI">    420.00000000</i>
    <separator name="electronic convergence detail" >
     <i type="logical" name="LDIAG"> T  </i>
     <i type="logical" name="LSUBROT"> F  </i>
     <i name="WEIMIN">      0.00000000</i>
     <i name="EBREAK">      0.00000208</i>
     <i name="DEPER">      0.30000000</i>
     <i type="int" name="NRMM">     4</i>
     <i name="TIME">      0.40000000</i>
    </separator>
   </separator>
   <separator name="electronic mixer" >
    <i name="AMIX">      0.40000000</i>
    <i name="BMIX">      1.00000000</i>
    <i name="AMIN">      0.10000000</i>
    <i name="AMIX_MAG">      1.60000000</i>
    <i name="BMIX_MAG">      1.00000000</i>
    <separator name="electronic mixer details" >
     <i type="int" name="IMIX">     4</i>
     <i type="logical" name="MIXFIRST"> F  </i>
     <i type="int" name="MAXMIX">   -45</i>
     <i name="WC">    100.00000000</i>
     <i type="int" name="INIMIX">     1</i>
     <i type="int" name="MIXPRE">     1</i>
     <i type="int" name="MREMOVE">     5</i>
    </separator>
   </separator>
   <separator name="electronic dipolcorrection" >
    <i type="logical" name="LDIPOL"> F  </i>
    <i type="logical" name="LMONO"> F  </i>
    <i type="int" name="IDIPOL">     0</i>
    <i name="EPSILON">      1.00000000</i>
    <v name="DIPOL">   -100.00000000   -100.00000000   -100.00000000</v>
    <i name="EFIELD">      0.00000000</i>
   </separator>
  </separator>
  <separator name="grids" >
   <i type="int" name="NGX">    14</i>
   <i type="int" name="NGY">    14</i>
   <i type="int" name="NGZ">    14</i>
   <i type="int" name="NGXF">    28</i>
   <i type="int" name="NGYF">    28</i>
   <i type="int" name="NGZF">    28</i>
   <i type="logical" name="ADDGRID"> F  </i>
  </separator>
  <separator name="ionic" >
   <i type="int" name="NSW">     0</i>
   <i type="int" name="IBRION">    -1</i>
   <i type="int" name="MDALGO">     0</i>
   <i type="int" name="ISIF">     0</i>
   <i name="PSTRESS">      0.00000000</i>
   <i name="EDIFFG">     -0.03000000</i>
   <i type="int" name="NFREE">     1</i>
   <i name="POTIM">      0.50000000</i>
   <i name="SMASS">     -3.00000000</i>
   <i name="SCALEE">      1.00000000</i>
  </separator>
  <separator name="ionic md" >
   <i name="TEBEG">      0.00010000</i>
   <i name="TEEND">      0.00010000</i>
   <i type="int" name="NBLOCK">     1</i>
   <i type="int" name="KBLOCK">     1</i>
   <i type="int" name="NPACO">   256</i>
   <i name="APACO">     16.00000000</i>
  </separator>
  <separator name="symmetry" >
   <i type="int" name="ISYM">     0</i>
   <i name="SYMPREC">      0.00001000</i>
  </separator>
  <separator name="dos" >
   <i type="int" name="LORBIT">    11</i>
   <v name="RWIGS">     -1.00000000</v>
   <i type="int" name="NEDOS">   301</i>
   <i name="EMIN">     10.00000000</i>
   <i name="EMAX">    -10.00000000</i>
   <i name="EFERMI">      0.00000000</i>
  </separator>
  <separator name="writing" >
   <i type="int" name="NWRITE">     2</i>
   <i type="logical" name="LWAVE"> F  </i>
   <i type="logical" name="LDOWNSAMPLE"> F  </i>
   <i type="logical" name="LCHARG"> T  </i>
   <i type="logical" name="LPARD"> F  </i>
   <i type="logical" name="LVTOT"> F  </i>
   <i type="logical" name="LVHAR"> F  </i>
   <i type="logical" name="LELF"> F  </i>
   <i type="logical" name="LOPTICS"> F  </i>
   <v name="STM">      0.00000000      0.00000000      0.00000000      0.00000000      0.00000000      0.00000000      0.00000000</v>
  </separator>
  <separator name="performance" >
   <i type="int" name="NPAR">     4</i>
   <i type="int" name="NSIM">     4</i>
   <i type="int" name="NBLK">    -1</i>
   <i type="logical" name="LPLANE"> T  </i>
   <i type="logical" name="LSCALAPACK"> T  </i>
   <i type="logical" name="LSCAAWARE"> F  </i>
   <i type="logical" name="LSCALU"> F  </i>
   <i type="logical" name="LASYNC"> F  </i>
   <i type="logical" name="LORBITALREAL"> F  </i>
  </separator>
  <separator name="miscellaneous" >
   <i type="int" name="IDIOT">     3</i>
   <i type="int" name="PHON_NSTRUCT">    -1</i>
   <i type="logical" name="LMUSIC"> F  </i>
   <v name="POMASS">    195.08000000</v>
   <v name="DARWINR">      0.00000000</v>
   <v name="DARWINV">      1.00000000</v>
   <i type="logical" name="LCORR"> T  </i>
  </separator>
  <i type="logical" name="GGA_COMPAT"> T  </i>
  <i type="logical" name="LBERRY"> F  </i>
  <i type="int" name="ICORELEVEL">     0</i>
  <i type="logical" name="LDAU"> F  </i>
  <i type="int" name="I_CONSTRAINED_M">     0</i>
  <separator name="electronic exchange-correlation" >
   <i type="string" name="GGA">RP</i>
   <i type="int" name="VOSKOWN">     0</i>
   <i type="logical" name="LHFCALC"> F  </i>
   <i type="string" name="PRECFOCK"></i>
   <i type="logical" name="LSYMGRAD"> F  </i>
   <i type="logical" name="LHFONE"> F  </i>
   <i type="logical" name="LRHFCALC"> F  </i>
   <i type="logical" name="LTHOMAS"> F  </i>
   <i type="logical" name="LMODELHF"> F  </i>
   <i type="logical" name="LFOCKACE"> F  </i>
   <i name="ENCUT4O">     -1.00000000</i>
   <i type="int" name="EXXOEP">     0</i>
   <i type="int" name="FOURORBIT">     0</i>
   <i name="AEXX">      0.00000000</i>
   <i name="HFALPHA">      0.00000000</i>
   <i name="MCALPHA">      0.00000000</i>
   <i name="ALDAX">      1.00000000</i>
   <i name="AGGAX">      1.00000000</i>
   <i name="ALDAC">      1.00000000</i>
   <i name="AGGAC">      1.00000000</i>
   <i type="int" name="NKREDX">     1</i>
   <i type="int" name="NKREDY">     1</i>
   <i type="int" name="NKREDZ">     1</i>
   <i type="logical" name="SHIFTRED"> F  </i>
   <i type="logical" name="ODDONLY"> F  </i>
   <i type="logical" name="EVENONLY"> F  </i>
   <i type="int" name="LMAXFOCK">     0</i>
   <i type="int" name="NMAXFOCKAE">     0</i>
   <i type="logical" name="LFOCKAEDFT"> F  </i>
   <i name="HFSCREEN">      0.00000000</i>
   <i name="HFSCREENC">      0.00000000</i>
   <i type="int" name="NBANDSGWLOW">     0</i>
  </separator>
  <separator name="vdW DFT" >
   <i type="logical" name="LUSE_VDW"> F  </i>
   <i name="Zab_VDW">     -0.84910000</i>
   <i name="PARAM1">      0.12340000</i>
   <i name="PARAM2">      1.00000000</i>
   <i name="PARAM3">      0.00000000</i>
  </separator>
  <separator name="model GW" >
   <i type="int" name="MODEL_GW">     0</i>
   <i name="MODEL_EPS0">      6.96581063</i>
   <i name="MODEL_ALPHA">      1.00000000</i>
  </separator>
  <separator name="linear response parameters" >
   <i type="logical" name="LEPSILON"> F  </i>
   <i type="logical" name="LRPA"> F  </i>
   <i type="logical" name="LNABLA"> F  </i>
   <i type="logical" name="LVEL"> F  </i>
   <i type="int" name="KINTER">     0</i>
   <i name="CSHIFT">      0.10000000</i>
   <i name="OMEGAMAX">     -1.00000000</i>
   <i name="DEG_THRESHOLD">      0.00200000</i>
   <i name="RTIME">     -0.10000000</i>
   <i name="WPLASMAI">      0.00000000</i>
   <v name="DFIELD">      0.00000000      0.00000000      0.00000000</v>
   <v name="WPLASMA">      0.00000000      0.00000000      0.00000000      0.00000000      0.00000000      0.00000000      0.00000000      0.00000000      0.00000000</v>
  </separator>
  <separator name="orbital magnetization" >
   <i type="logical" name="NUCIND"> F  </i>
   <v name="MAGPOS">      0.00000000      0.00000000      0.00000000</v>
   <i type="logical" name="LNICSALL"> T  </i>
   <i type="logical" name="ORBITALMAG"> F  </i>
   <i type="logical" name="LMAGBLOCH"> F  </i>
   <i type="logical" name="LCHIMAG"> F  </i>
   <i type="logical" name="LGAUGE"> T  </i>
   <i type="int" name="MAGATOM">     0</i>
   <v name="MAGDIPOL">      0.00000000      0.00000000      0.00000000</v>
   <v name="AVECCONST">      0.00000000      0.00000000      0.00000000</v>
  </separator>
  <separator name="response functions" >
   <i type="logical" name="LFINITE_TEMPERATURE"> F  </i>
   <i type="logical" name="LADDER"> F  </i>
   <i type="logical" name="LRPAFORCE"> F  </i>
   <i type="logical" name="LFXC"> F  </i>
   <i type="logical" name="LHARTREE"> T  </i>
   <i type="int" name="IBSE">     0</i>
   <v type="int" name="KPOINT">    -1     0     0     0</v>
   <i type="logical" name="LTCTC"> F  </i>
   <i type="logical" name="LTCTE"> F  </i>
   <i type="logical" name="LTETE"> F  </i>
   <i type="logical" name="LTRIPLET"> F  </i>
   <i type="logical" name="LFXCEPS"> F  </i>
   <i type="logical" name="LFXHEG"> F  </i>
   <i type="int" name="NATURALO">     2</i>
   <i type="logical" name="LHOLEGF"> F  </i>
   <i type="logical" name="L2ORDER"> F  </i>
   <i type="logical" name="LDMP1"> F  </i>
   <i type="logical" name="LMP2LT"> F  </i>
   <i type="logical" name="LSMP2LT"> F  </i>
   <i type="logical" name="LGWLF"> F  </i>
   <i name="ENCUTGW">     -2.00000000</i>
   <i name="ENCUTGWSOFT">     -2.00000000</i>
   <i name="ENCUTLF">     -1.00000000</i>
   <i type="logical" name="LESF_SPLINES"> F  </i>
   <i type="int" name="LMAXMP2">    -1</i>
   <i name="SCISSOR">      0.00000000</i>
   <i type="int" name="NOMEGA">     0</i>
   <i type="int" name="NOMEGAR">     0</i>
   <i type="int" name="NBANDSGW">    -1</i>
   <i type="int" name="NBANDSO">    -1</i>
   <i type="int" name="NBANDSV">    -1</i>
   <i type="int" name="NELM">    60</i>
   <i type="int" name="NELMHF">     1</i>
   <i type="int" name="DIM">     3</i>
   <i type="int" name="IESPILON">     4</i>
   <i type="int" name="ANTIRES">     0</i>
   <i name="OMEGAMAX">    -30.00000000</i>
   <i name="OMEGAMIN">    -30.00000000</i>
   <i name="OMEGATL">   -200.00000000</i>
   <i type="int" name="OMEGAGRID">     0</i>
   <i name="CSHIFT">     -0.10000000</i>
   <i type="logical" name="LSELFENERGY"> F  </i>
   <i type="logical" name="LSPECTRAL"> F  </i>
   <i type="logical" name="LSPECTRALGW"> F  </i>
   <i type="logical" name="LSINGLES"> F  </i>
   <i type="logical" name="LFERMIGW"> F  </i>
   <i type="logical" name="ODDONLYGW"> F  </i>
   <i type="logical" name="EVENONLYGW"> F  </i>
   <i type="int" name="NKREDLFX">     1</i>
   <i type="int" name="NKREDLFY">     1</i>
   <i type="int" name="NKREDLFZ">     1</i>
   <i type="int" name="MAXMEM">  2800</i>
   <i type="int" name="TELESCOPE">     0</i>
   <i type="int" name="NTAUPAR">    -1</i>
   <i type="int" name="NOMEGAPAR">    -1</i>
   <i name="DAMP_NEWTON">      0.80000001</i>
   <i name="LAMBDA">      1.00000000</i>
  </separator>
  <separator name="External order field" >
   <i name="OFIELD_KAPPA">      0.00000000</i>
   <v name="OFIELD_K">      0.00000000      0.00000000      0.00000000</v>
   <i name="OFIELD_Q6_NEAR">      0.00000000</i>
   <i name="OFIELD_Q6_FAR">      0.00000000</i>
   <i name="OFIELD_A">      0.00000000</i>
  </separator>
 </parameters>
 <atominfo>
  <atoms>       1 </atoms>
  <types>       1 </types>
  <array name="atoms" >
   <dimension dim="1">ion</dimension>
   <field type="string">element</field>
   <field type="int">atomtype</field>
   <set>
    <rc><c>Pt</c><c>   1</c></rc>
   </set>
  </array>
  <array name="atomtypes" >
   <dimension dim="1">type</dimension>
   <field type="int">atomspertype</field>
   <field type="string">element</field>
   <field>mass</field>
   <field>valence</field>
   <field type="string">pseudopotential</field>
   <set>
    <rc><c>   1</c><c>Pt</c><c>    195.08000000</c><c>     10.00000000</c><c>  PAW_PBE Pt 04Feb2005                  </c></rc>
   </set>
  </array>
 </atominfo>
 <structure name="initialpos" >
  <crystal>
   <varray name="basis" >
    <v>       2.20111500       0.00000400       1.27082700 </v>
    <v>       0.73371000       2.07522800       1.27082700 </v>
    <v>       0.00000600       0.00000400       2.54163400 </v>
   </varray>
   <i name="volume">     11.60968439 </i>
   <varray name="rec_basis" >
    <v>       0.45431596      -0.16062578      -0.00000082 </v>
    <v>      -0.00000044       0.48187538      -0.00000076 </v>
    <v>      -0.22715955      -0.16062606       0.39344847 </v>
   </varray>
  </crystal>
  <varray name="positions" >
   <v>       0.00000000       0.00000000       0.00000000 </v>
  </varray>
 </structure>
 <calculation>
  <scstep>
   <time name="dav">    0.64    0.65</time>
   <time name="total">    0.65    0.66</time>
   <energy>
    <i name="alphaZ">     81.87842481 </i>
    <i name="ewald">   -918.38662708 </i>
    <i name="hartreedc">    -50.37463692 </i>
    <i name="XCdc">      4.91496651 </i>
    <i name="pawpsdc">    696.70595042 </i>
    <i name="pawaedc">   -667.45827301 </i>
    <i name="eentropy">     -0.00070623 </i>
    <i name="bandstr">    162.57960098 </i>
    <i name="atom">    728.31920932 </i>
    <i name="e_fr_energy">     38.17790880 </i>
    <i name="e_wo_entrp">     38.17861503 </i>
    <i name="e_0_energy">     38.17826191 </i>
   </energy>
  </scstep>
  <scstep>
   <time name="dav">    0.72    0.72</time>
   <time name="total">    0.72    0.72</time>
   <energy>
    <i name="e_fr_energy">     -3.51148556 </i>
    <i name="e_wo_entrp">     -3.50748323 </i>
    <i name="e_0_energy">     -3.50948439 </i>
   </energy>
  </scstep>
  <scstep>
   <time name="dav">    0.73    0.73</time>
   <time name="total">    0.73    0.74</time>
   <energy>
    <i name="e_fr_energy">     -4.03516408 </i>
    <i name="e_wo_entrp">     -4.03056357 </i>
    <i name="e_0_energy">     -4.03286382 </i>
   </energy>
  </scstep>
  <scstep>
   <time name="dav">    0.73    0.74</time>
   <time name="total">    0.73    0.74</time>
   <energy>
    <i name="e_fr_energy">     -4.03681764 </i>
    <i name="e_wo_entrp">     -4.03221652 </i>
    <i name="e_0_energy">     -4.03451708 </i>
   </energy>
  </scstep>
  <scstep>
   <time name="dav">    0.74    0.74</time>
   <time name="total">    0.75    0.75</time>
   <energy>
    <i name="e_fr_energy">     -4.03682672 </i>
    <i name="e_wo_entrp">     -4.03222560 </i>
    <i name="e_0_energy">     -4.03452616 </i>
   </energy>
  </scstep>
  <scstep>
   <time name="dav">    0.73    0.73</time>
   <time name="total">    0.75    0.76</time>
   <energy>
    <i name="e_fr_energy">     -3.82906221 </i>
    <i name="e_wo_entrp">     -3.82420724 </i>
    <i name="e_0_energy">     -3.82663473 </i>
   </energy>
  </scstep>
  <scstep>
   <time name="dav">    0.73    0.73</time>
   <time name="total">    0.75    0.75</time>
   <energy>
    <i name="e_fr_energy">     -3.75439467 </i>
    <i name="e_wo_entrp">     -3.74965062 </i>
    <i name="e_0_energy">     -3.75202265 </i>
   </energy>
  </scstep>
  <scstep>
   <time name="dav">    0.69    0.69</time>
   <time name="total">    0.71    0.71</time>
   <energy>
    <i name="e_fr_energy">     -3.75102429 </i>
    <i name="e_wo_entrp">     -3.74627004 </i>
    <i name="e_0_energy">     -3.74864717 </i>
   </energy>
  </scstep>
  <scstep>
   <time name="dav">    0.70    0.70</time>
   <time name="total">    0.70    0.71</time>
   <energy>
    <i name="alphaZ">     81.87842481 </i>
    <i name="ewald">   -918.38662708 </i>
    <i name="hartreedc">    -41.89516716 </i>
    <i name="XCdc">      4.68521280 </i>
    <i name="pawpsdc">   1331.43690432 </i>
    <i name="pawaedc">  -1307.37397764 </i>
    <i name="eentropy">     -0.00475234 </i>
    <i name="bandstr">    117.58978405 </i>
    <i name="atom">    728.31920932 </i>
    <i name="e_fr_energy">     -3.75098891 </i>
    <i name="e_wo_entrp">     -3.74623657 </i>
    <i name="e_0_energy">     -3.74861274 </i>
   </energy>
  </scstep>
  <structure>
   <crystal>
    <varray name="basis" >
     <v>       2.20111500       0.00000400       1.27082700 </v>
     <v>       0.73371000       2.07522800       1.27082700 </v>
     <v>       0.00000600       0.00000400       2.54163400 </v>
    </varray>
    <i name="volume">     11.60968439 </i>
    <varray name="rec_basis" >
     <v>       0.45431596      -0.16062578      -0.00000082 </v>
     <v>      -0.00000044       0.48187538      -0.00000076 </v>
     <v>      -0.22715955      -0.16062606       0.39344847 </v>
    </varray>
   </crystal>
   <varray name="positions" >
    <v>       0.00000000       0.00000000       0.00000000 </v>
   </varray>
  </structure>
  <varray name="forces" >
   <v>      -0.00000240       0.00000788      -0.00000896 </v>
  </varray>
  <energy>
   <i name="e_fr_energy">     -3.75098891 </i>
   <i name="e_wo_entrp">     -3.74623657 </i>
   <i name="e_0_energy">     -3.74861274 </i>
  </energy>
  <time name="totalsc">    6.59    6.61</time>
  <eigenvalues>
   <array>
    <dimension dim="1">band</dimension>
    <dimension dim="2">kpoint</dimension>
    <dimension dim="3">spin</dimension>
    <field>eigene</field>
    <field>occ</field>
    <set>
     <set comment="spin 1">
      <set comment="kpoint 1">
       <r>    3.6833    1.0000 </r>
       <r>   11.4142    1.0000 </r>
       <r>   11.4143    1.0000 </r>
       <r>   11.4143    1.0000 </r>
       <r>   14.7245    1.0000 </r>
       <r>   14.7245    1.0000 </r>
       <r>   30.5004    0.0000 </r>
       <r>   37.0710    0.0000 </r>
       <r>   37.0713    0.0000 </r>
       <r>   37.0713    0.0000 </r>
       <r>   43.4510    0.0000 </r>
       <r>   48.8194    0.0000 </r>
      </set>
      <set comment="kpoint 2">
       <r>    4.7032    1.0000 </r>
       <r>   10.9435    1.0000 </r>
       <r>   11.8044    1.0000 </r>
       <r>   11.8046    1.0000 </r>
       <r>   14.5092    1.0000 </r>
       <r>   14.5092    1.0000 </r>
       <r>   32.1964    0.0000 </r>
       <r>   34.1030    0.0000 </r>
       <r>   38.8987    0.0000 </r>
       <r>   38.8989    0.0000 </r>
       <r>   46.6355    0.0000 </r>
       <r>   48.9013    0.0000 </r>
      </set>
      <set comment="kpoint 3">
       <r>    4.7032    1.0000 </r>
       <r>   10.9435    1.0000 </r>
       <r>   11.8044    1.0000 </r>
       <r>   11.8046    1.0000 </r>
       <r>   14.5092    1.0000 </r>
       <r>   14.5092    1.0000 </r>
       <r>   32.1964    0.0000 </r>
       <r>   34.1030    0.0000 </r>
       <r>   38.8987    0.0000 </r>
       <r>   38.8989    0.0000 </r>
       <r>   46.6356    0.0000 </r>
       <r>   48.6472    0.0000 </r>
      </set>
      <set comment="kpoint 4">
       <r>    4.7032    1.0000 </r>
       <r>   10.9435    1.0000 </r>
       <r>   11.8044    1.0000 </r>
       <r>   11.8046    1.0000 </r>
       <r>   14.5092    1.0000 </r>
       <r>   14.5092    1.0000 </r>
       <r>   32.1964    0.0000 </r>
       <r>   34.1030    0.0000 </r>
       <r>   38.8987    0.0000 </r>
       <r>   38.8989    0.0000 </r>
       <r>   46.6356    0.0000 </r>
       <r>   48.9304    0.0000 </r>
      </set>
      <set comment="kpoint 5">
       <r>    4.7032    1.0000 </r>
       <r>   10.9434    1.0000 </r>
       <r>   11.8045    1.0000 </r>
       <r>   11.8045    1.0000 </r>
       <r>   14.5092    1.0000 </r>
       <r>   14.5092    1.0000 </r>
       <r>   32.1964    0.0000 </r>
       <r>   34.1029    0.0000 </r>
       <r>   38.8989    0.0000 </r>
       <r>   38.8989    0.0000 </r>
       <r>   46.6354    0.0000 </r>
       <r>   48.9303    0.0000 </r>
      </set>
      <set comment="kpoint 6">
       <r>    6.4723    1.0000 </r>
       <r>   11.3496    1.0000 </r>
       <r>   11.8477    1.0000 </r>
       <r>   11.8479    1.0000 </r>
       <r>   15.2868    1.0000 </r>
       <r>   15.2869    1.0000 </r>
       <r>   30.1020    0.0000 </r>
       <r>   34.1215    0.0000 </r>
       <r>   43.0778    0.0000 </r>
       <r>   43.1972    0.0000 </r>
       <r>   43.1975    0.0000 </r>
       <r>   43.8432    0.0000 </r>
      </set>
      <set comment="kpoint 7">
       <r>    6.4723    1.0000 </r>
       <r>   11.3496    1.0000 </r>
       <r>   11.8478    1.0000 </r>
       <r>   11.8479    1.0000 </r>
       <r>   15.2868    1.0000 </r>
       <r>   15.2869    1.0000 </r>
       <r>   30.1020    0.0000 </r>
       <r>   34.1215    0.0000 </r>
       <r>   43.0778    0.0000 </r>
       <r>   43.1972    0.0000 </r>
       <r>   43.1975    0.0000 </r>
       <r>   43.8431    0.0000 </r>
      </set>
      <set comment="kpoint 8">
       <r>    6.4723    1.0000 </r>
       <r>   11.3496    1.0000 </r>
       <r>   11.8478    1.0000 </r>
       <r>   11.8479    1.0000 </r>
       <r>   15.2868    1.0000 </r>
       <r>   15.2869    1.0000 </r>
       <r>   30.1020    0.0000 </r>
       <r>   34.1215    0.0000 </r>
       <r>   43.0778    0.0000 </r>
       <r>   43.1972    0.0000 </r>
       <r>   43.1974    0.0000 </r>
       <r>   43.8433    0.0000 </r>
      </set>
      <set comment="kpoint 9">
       <r>    6.4722    1.0000 </r>
       <r>   11.3495    1.0000 </r>
       <r>   11.8478    1.0000 </r>
       <r>   11.8478    1.0000 </r>
       <r>   15.2869    1.0000 </r>
       <r>   15.2869    1.0000 </r>
       <r>   30.1020    0.0000 </r>
       <r>   34.1212    0.0000 </r>
       <r>   43.0777    0.0000 </r>
       <r>   43.1974    0.0000 </r>
       <r>   43.1974    0.0000 </r>
       <r>   43.8432    0.0000 </r>
      </set>
      <set comment="kpoint 10">
       <r>    6.6532    1.0000 </r>
       <r>   11.3566    1.0000 </r>
       <r>   11.3568    1.0000 </r>
       <r>   14.6973    1.0000 </r>
       <r>   16.9902    1.0000 </r>
       <r>   16.9903    1.0000 </r>
       <r>   26.4814    0.0000 </r>
       <r>   30.6873    0.0000 </r>
       <r>   38.4026    0.0000 </r>
       <r>   38.4028    0.0000 </r>
       <r>   48.4972    0.0000 </r>
       <r>   48.8144    0.0000 </r>
      </set>
      <set comment="kpoint 11">
       <r>    6.6533    1.0000 </r>
       <r>   11.3566    1.0000 </r>
       <r>   11.3568    1.0000 </r>
       <r>   14.6973    1.0000 </r>
       <r>   16.9902    1.0000 </r>
       <r>   16.9903    1.0000 </r>
       <r>   26.4814    0.0000 </r>
       <r>   30.6873    0.0000 </r>
       <r>   38.4026    0.0000 </r>
       <r>   38.4028    0.0000 </r>
       <r>   48.4975    0.0000 </r>
       <r>   48.8146    0.0000 </r>
      </set>
      <set comment="kpoint 12">
       <r>    6.6533    1.0000 </r>
       <r>   11.3566    1.0000 </r>
       <r>   11.3568    1.0000 </r>
       <r>   14.6973    1.0000 </r>
       <r>   16.9902    1.0000 </r>
       <r>   16.9903    1.0000 </r>
       <r>   26.4814    0.0000 </r>
       <r>   30.6873    0.0000 </r>
       <r>   38.4026    0.0000 </r>
       <r>   38.4028    0.0000 </r>
       <r>   48.4973    0.0000 </r>
       <r>   48.8149    0.0000 </r>
      </set>
      <set comment="kpoint 13">
       <r>    6.6532    1.0000 </r>
       <r>   11.3567    1.0000 </r>
       <r>   11.3567    1.0000 </r>
       <r>   14.6972    1.0000 </r>
       <r>   16.9902    1.0000 </r>
       <r>   16.9902    1.0000 </r>
       <r>   26.4812    0.0000 </r>
       <r>   30.6873    0.0000 </r>
       <r>   38.4029    0.0000 </r>
       <r>   38.4029    0.0000 </r>
       <r>   48.4974    0.0000 </r>
       <r>   48.8144    0.0000 </r>
      </set>
      <set comment="kpoint 14">
       <r>    5.0572    1.0000 </r>
       <r>   10.3834    1.0000 </r>
       <r>   12.2431    1.0000 </r>
       <r>   12.2432    1.0000 </r>
       <r>   13.5307    1.0000 </r>
       <r>   15.1442    1.0000 </r>
       <r>   32.9760    0.0000 </r>
       <r>   35.5277    0.0000 </r>
       <r>   37.8017    0.0000 </r>
       <r>   37.8019    0.0000 </r>
       <r>   48.0878    0.0000 </r>
       <r>   48.0883    0.0000 </r>
      </set>
      <set comment="kpoint 15">
       <r>    5.0572    1.0000 </r>
       <r>   10.3834    1.0000 </r>
       <r>   12.2431    1.0000 </r>
       <r>   12.2432    1.0000 </r>
       <r>   13.5307    1.0000 </r>
       <r>   15.1442    1.0000 </r>
       <r>   32.9760    0.0000 </r>
       <r>   35.5277    0.0000 </r>
       <r>   37.8017    0.0000 </r>
       <r>   37.8019    0.0000 </r>
       <r>   48.0879    0.0000 </r>
       <r>   48.0901    0.0000 </r>
      </set>
      <set comment="kpoint 16">
       <r>    5.0572    1.0000 </r>
       <r>   10.3834    1.0000 </r>
       <r>   12.2431    1.0000 </r>
       <r>   12.2432    1.0000 </r>
       <r>   13.5307    1.0000 </r>
       <r>   15.1442    1.0000 </r>
       <r>   32.9760    0.0000 </r>
       <r>   35.5277    0.0000 </r>
       <r>   37.8017    0.0000 </r>
       <r>   37.8019    0.0000 </r>
       <r>   48.0879    0.0000 </r>
       <r>   48.0890    0.0000 </r>
      </set>
      <set comment="kpoint 17">
       <r>    6.8090    1.0000 </r>
       <r>    9.8087    1.0000 </r>
       <r>   11.8451    1.0000 </r>
       <r>   12.7769    1.0000 </r>
       <r>   14.4691    1.0000 </r>
       <r>   15.8746    1.0000 </r>
       <r>   32.5685    0.0000 </r>
       <r>   35.5169    0.0000 </r>
       <r>   38.7624    0.0000 </r>
       <r>   39.2370    0.0000 </r>
       <r>   44.7934    0.0000 </r>
       <r>   44.9177    0.0000 </r>
      </set>
      <set comment="kpoint 18">
       <r>    6.8090    1.0000 </r>
       <r>    9.8087    1.0000 </r>
       <r>   11.8451    1.0000 </r>
       <r>   12.7769    1.0000 </r>
       <r>   14.4691    1.0000 </r>
       <r>   15.8746    1.0000 </r>
       <r>   32.5685    0.0000 </r>
       <r>   35.5169    0.0000 </r>
       <r>   38.7623    0.0000 </r>
       <r>   39.2370    0.0000 </r>
       <r>   44.7934    0.0000 </r>
       <r>   44.9177    0.0000 </r>
      </set>
      <set comment="kpoint 19">
       <r>    6.8090    1.0000 </r>
       <r>    9.8087    1.0000 </r>
       <r>   11.8451    1.0000 </r>
       <r>   12.7769    1.0000 </r>
       <r>   14.4691    1.0000 </r>
       <r>   15.8746    1.0000 </r>
       <r>   32.5685    0.0000 </r>
       <r>   35.5169    0.0000 </r>
       <r>   38.7624    0.0000 </r>
       <r>   39.2370    0.0000 </r>
       <r>   44.7935    0.0000 </r>
       <r>   44.9177    0.0000 </r>
      </set>
      <set comment="kpoint 20">
       <r>    6.8090    1.0000 </r>
       <r>    9.8087    1.0000 </r>
       <r>   11.8451    1.0000 </r>
       <r>   12.7770    1.0000 </r>
       <r>   14.4690    1.0000 </r>
       <r>   15.8746    1.0000 </r>
       <r>   32.5684    0.0000 </r>
       <r>   35.5169    0.0000 </r>
       <r>   38.7625    0.0000 </r>
       <r>   39.2370    0.0000 </r>
       <r>   44.7936    0.0000 </r>
       <r>   44.9176    0.0000 </r>
      </set>
      <set comment="kpoint 21">
       <r>    6.8090    1.0000 </r>
       <r>    9.8087    1.0000 </r>
       <r>   11.8451    1.0000 </r>
       <r>   12.7769    1.0000 </r>
       <r>   14.4691    1.0000 </r>
       <r>   15.8746    1.0000 </r>
       <r>   32.5684    0.0000 </r>
       <r>   35.5167    0.0000 </r>
       <r>   38.7625    0.0000 </r>
       <r>   39.2369    0.0000 </r>
       <r>   44.7935    0.0000 </r>
       <r>   44.9176    0.0000 </r>
      </set>
      <set comment="kpoint 22">
       <r>    6.8090    1.0000 </r>
       <r>    9.8087    1.0000 </r>
       <r>   11.8451    1.0000 </r>
       <r>   12.7769    1.0000 </r>
       <r>   14.4691    1.0000 </r>
       <r>   15.8746    1.0000 </r>
       <r>   32.5685    0.0000 </r>
       <r>   35.5169    0.0000 </r>
       <r>   38.7624    0.0000 </r>
       <r>   39.2370    0.0000 </r>
       <r>   44.7935    0.0000 </r>
       <r>   44.9177    0.0000 </r>
      </set>
      <set comment="kpoint 23">
       <r>    6.8090    1.0000 </r>
       <r>    9.8087    1.0000 </r>
       <r>   11.8451    1.0000 </r>
       <r>   12.7770    1.0000 </r>
       <r>   14.4690    1.0000 </r>
       <r>   15.8746    1.0000 </r>
       <r>   32.5684    0.0000 </r>
       <r>   35.5169    0.0000 </r>
       <r>   38.7626    0.0000 </r>
       <r>   39.2370    0.0000 </r>
       <r>   44.7936    0.0000 </r>
       <r>   44.9176    0.0000 </r>
      </set>
      <set comment="kpoint 24">
       <r>    6.8090    1.0000 </r>
       <r>    9.8087    1.0000 </r>
       <r>   11.8451    1.0000 </r>
       <r>   12.7769    1.0000 </r>
       <r>   14.4691    1.0000 </r>
       <r>   15.8746    1.0000 </r>
       <r>   32.5684    0.0000 </r>
       <r>   35.5167    0.0000 </r>
       <r>   38.7625    0.0000 </r>
       <r>   39.2369    0.0000 </r>
       <r>   44.7935    0.0000 </r>
       <r>   44.9176    0.0000 </r>
      </set>
      <set comment="kpoint 25">
       <r>    6.8090    1.0000 </r>
       <r>    9.8087    1.0000 </r>
       <r>   11.8451    1.0000 </r>
       <r>   12.7769    1.0000 </r>
       <r>   14.4691    1.0000 </r>
       <r>   15.8746    1.0000 </r>
       <r>   32.5685    0.0000 </r>
       <r>   35.5169    0.0000 </r>
       <r>   38.7623    0.0000 </r>
       <r>   39.2370    0.0000 </r>
       <r>   44.7934    0.0000 </r>
       <r>   44.9177    0.0000 </r>
      </set>
      <set comment="kpoint 26">
       <r>    6.8090    1.0000 </r>
       <r>    9.8087    1.0000 </r>
       <r>   11.8451    1.0000 </r>
       <r>   12.7770    1.0000 </r>
       <r>   14.4690    1.0000 </r>
       <r>   15.8746    1.0000 </r>
       <r>   32.5684    0.0000 </r>
       <r>   35.5169    0.0000 </r>
       <r>   38.7625    0.0000 </r>
       <r>   39.2370    0.0000 </r>
       <r>   44.7936    0.0000 </r>
       <r>   44.9176    0.0000 </r>
      </set>
      <set comment="kpoint 27">
       <r>    6.8090    1.0000 </r>
       <r>    9.8087    1.0000 </r>
       <r>   11.8451    1.0000 </r>
       <r>   12.7769    1.0000 </r>
       <r>   14.4691    1.0000 </r>
       <r>   15.8746    1.0000 </r>
       <r>   32.5684    0.0000 </r>
       <r>   35.5167    0.0000 </r>
       <r>   38.7626    0.0000 </r>
       <r>   39.2369    0.0000 </r>
       <r>   44.7935    0.0000 </r>
       <r>   44.9176    0.0000 </r>
      </set>
      <set comment="kpoint 28">
       <r>    6.8090    1.0000 </r>
       <r>    9.8087    1.0000 </r>
       <r>   11.8451    1.0000 </r>
       <r>   12.7769    1.0000 </r>
       <r>   14.4691    1.0000 </r>
       <r>   15.8746    1.0000 </r>
       <r>   32.5685    0.0000 </r>
       <r>   35.5169    0.0000 </r>
       <r>   38.7624    0.0000 </r>
       <r>   39.2370    0.0000 </r>
       <r>   44.7934    0.0000 </r>
       <r>   44.9177    0.0000 </r>
      </set>
      <set comment="kpoint 29">
       <r>    7.4531    1.0000 </r>
       <r>   10.7123    1.0000 </r>
       <r>   11.7022    1.0000 </r>
       <r>   12.3512    1.0000 </r>
       <r>   17.2461    0.9999 </r>
       <r>   17.9227    0.0000 </r>
       <r>   27.8689    0.0000 </r>
       <r>   32.7982    0.0000 </r>
       <r>   37.2230    0.0000 </r>
       <r>   39.2614    0.0000 </r>
       <r>   46.2120    0.0000 </r>
       <r>   47.7753    0.0000 </r>
      </set>
      <set comment="kpoint 30">
       <r>    7.4531    1.0000 </r>
       <r>   10.7123    1.0000 </r>
       <r>   11.7022    1.0000 </r>
       <r>   12.3512    1.0000 </r>
       <r>   17.2461    0.9999 </r>
       <r>   17.9227    0.0000 </r>
       <r>   27.8689    0.0000 </r>
       <r>   32.7982    0.0000 </r>
       <r>   37.2230    0.0000 </r>
       <r>   39.2614    0.0000 </r>
       <r>   46.2120    0.0000 </r>
       <r>   47.7753    0.0000 </r>
      </set>
      <set comment="kpoint 31">
       <r>    7.4531    1.0000 </r>
       <r>   10.7123    1.0000 </r>
       <r>   11.7022    1.0000 </r>
       <r>   12.3512    1.0000 </r>
       <r>   17.2461    0.9999 </r>
       <r>   17.9227    0.0000 </r>
       <r>   27.8689    0.0000 </r>
       <r>   32.7982    0.0000 </r>
       <r>   37.2230    0.0000 </r>
       <r>   39.2614    0.0000 </r>
       <r>   46.2120    0.0000 </r>
       <r>   47.7753    0.0000 </r>
      </set>
      <set comment="kpoint 32">
       <r>    7.4530    1.0000 </r>
       <r>   10.7123    1.0000 </r>
       <r>   11.7022    1.0000 </r>
       <r>   12.3513    1.0000 </r>
       <r>   17.2462    0.9999 </r>
       <r>   17.9227    0.0000 </r>
       <r>   27.8689    0.0000 </r>
       <r>   32.7982    0.0000 </r>
       <r>   37.2231    0.0000 </r>
       <r>   39.2613    0.0000 </r>
       <r>   46.2121    0.0000 </r>
       <r>   47.7753    0.0000 </r>
      </set>
      <set comment="kpoint 33">
       <r>    7.4531    1.0000 </r>
       <r>   10.7123    1.0000 </r>
       <r>   11.7021    1.0000 </r>
       <r>   12.3512    1.0000 </r>
       <r>   17.2461    0.9999 </r>
       <r>   17.9227    0.0000 </r>
       <r>   27.8687    0.0000 </r>
       <r>   32.7983    0.0000 </r>
       <r>   37.2232    0.0000 </r>
       <r>   39.2613    0.0000 </r>
       <r>   46.2121    0.0000 </r>
       <r>   47.7752    0.0000 </r>
      </set>
      <set comment="kpoint 34">
       <r>    7.4531    1.0000 </r>
       <r>   10.7123    1.0000 </r>
       <r>   11.7022    1.0000 </r>
       <r>   12.3512    1.0000 </r>
       <r>   17.2461    0.9999 </r>
       <r>   17.9227    0.0000 </r>
       <r>   27.8689    0.0000 </r>
       <r>   32.7982    0.0000 </r>
       <r>   37.2230    0.0000 </r>
       <r>   39.2614    0.0000 </r>
       <r>   46.2120    0.0000 </r>
       <r>   47.7753    0.0000 </r>
      </set>
      <set comment="kpoint 35">
       <r>    7.4530    1.0000 </r>
       <r>   10.7123    1.0000 </r>
       <r>   11.7022    1.0000 </r>
       <r>   12.3513    1.0000 </r>
       <r>   17.2462    0.9999 </r>
       <r>   17.9227    0.0000 </r>
       <r>   27.8689    0.0000 </r>
       <r>   32.7982    0.0000 </r>
       <r>   37.2232    0.0000 </r>
       <r>   39.2613    0.0000 </r>
       <r>   46.2121    0.0000 </r>
       <r>   47.7753    0.0000 </r>
      </set>
      <set comment="kpoint 36">
       <r>    7.4531    1.0000 </r>
       <r>   10.7123    1.0000 </r>
       <r>   11.7021    1.0000 </r>
       <r>   12.3512    1.0000 </r>
       <r>   17.2461    0.9999 </r>
       <r>   17.9227    0.0000 </r>
       <r>   27.8687    0.0000 </r>
       <r>   32.7983    0.0000 </r>
       <r>   37.2232    0.0000 </r>
       <r>   39.2613    0.0000 </r>
       <r>   46.2121    0.0000 </r>
       <r>   47.7753    0.0000 </r>
      </set>
      <set comment="kpoint 37">
       <r>    7.4531    1.0000 </r>
       <r>   10.7123    1.0000 </r>
       <r>   11.7022    1.0000 </r>
       <r>   12.3512    1.0000 </r>
       <r>   17.2461    0.9999 </r>
       <r>   17.9227    0.0000 </r>
       <r>   27.8689    0.0000 </r>
       <r>   32.7982    0.0000 </r>
       <r>   37.2230    0.0000 </r>
       <r>   39.2614    0.0000 </r>
       <r>   46.2120    0.0000 </r>
       <r>   47.7753    0.0000 </r>
      </set>
      <set comment="kpoint 38">
       <r>    7.4530    1.0000 </r>
       <r>   10.7123    1.0000 </r>
       <r>   11.7022    1.0000 </r>
       <r>   12.3513    1.0000 </r>
       <r>   17.2462    0.9999 </r>
       <r>   17.9227    0.0000 </r>
       <r>   27.8689    0.0000 </r>
       <r>   32.7982    0.0000 </r>
       <r>   37.2231    0.0000 </r>
       <r>   39.2613    0.0000 </r>
       <r>   46.2121    0.0000 </r>
       <r>   47.7753    0.0000 </r>
      </set>
      <set comment="kpoint 39">
       <r>    7.4530    1.0000 </r>
       <r>   10.7123    1.0000 </r>
       <r>   11.7021    1.0000 </r>
       <r>   12.3512    1.0000 </r>
       <r>   17.2461    0.9999 </r>
       <r>   17.9227    0.0000 </r>
       <r>   27.8687    0.0000 </r>
       <r>   32.7983    0.0000 </r>
       <r>   37.2232    0.0000 </r>
       <r>   39.2613    0.0000 </r>
       <r>   46.2121    0.0000 </r>
       <r>   47.7753    0.0000 </r>
      </set>
      <set comment="kpoint 40">
       <r>    7.4531    1.0000 </r>
       <r>   10.7123    1.0000 </r>
       <r>   11.7022    1.0000 </r>
       <r>   12.3512    1.0000 </r>
       <r>   17.2461    0.9999 </r>
       <r>   17.9227    0.0000 </r>
       <r>   27.8689    0.0000 </r>
       <r>   32.7982    0.0000 </r>
       <r>   37.2230    0.0000 </r>
       <r>   39.2614    0.0000 </r>
       <r>   46.2120    0.0000 </r>
       <r>   47.7753    0.0000 </r>
      </set>
      <set comment="kpoint 41">
       <r>    7.4623    1.0000 </r>
       <r>   10.5455    1.0000 </r>
       <r>   12.0213    1.0000 </r>
       <r>   13.1867    1.0000 </r>
       <r>   16.8712    1.0000 </r>
       <r>   20.3657    0.0000 </r>
       <r>   25.2242    0.0000 </r>
       <r>   32.0269    0.0000 </r>
       <r>   36.2600    0.0000 </r>
       <r>   37.9911    0.0000 </r>
       <r>   47.5297    0.0000 </r>
       <r>   48.8164    0.0000 </r>
      </set>
      <set comment="kpoint 42">
       <r>    7.4623    1.0000 </r>
       <r>   10.5456    1.0000 </r>
       <r>   12.0213    1.0000 </r>
       <r>   13.1867    1.0000 </r>
       <r>   16.8712    1.0000 </r>
       <r>   20.3657    0.0000 </r>
       <r>   25.2242    0.0000 </r>
       <r>   32.0269    0.0000 </r>
       <r>   36.2600    0.0000 </r>
       <r>   37.9911    0.0000 </r>
       <r>   47.5297    0.0000 </r>
       <r>   48.8173    0.0000 </r>
      </set>
      <set comment="kpoint 43">
       <r>    7.4623    1.0000 </r>
       <r>   10.5455    1.0000 </r>
       <r>   12.0213    1.0000 </r>
       <r>   13.1867    1.0000 </r>
       <r>   16.8712    1.0000 </r>
       <r>   20.3657    0.0000 </r>
       <r>   25.2242    0.0000 </r>
       <r>   32.0269    0.0000 </r>
       <r>   36.2600    0.0000 </r>
       <r>   37.9911    0.0000 </r>
       <r>   47.5297    0.0000 </r>
       <r>   48.8161    0.0000 </r>
      </set>
      <set comment="kpoint 44">
       <r>    7.4623    1.0000 </r>
       <r>   10.5454    1.0000 </r>
       <r>   12.0215    1.0000 </r>
       <r>   13.1867    1.0000 </r>
       <r>   16.8713    1.0000 </r>
       <r>   20.3656    0.0000 </r>
       <r>   25.2243    0.0000 </r>
       <r>   32.0268    0.0000 </r>
       <r>   36.2599    0.0000 </r>
       <r>   37.9913    0.0000 </r>
       <r>   47.5298    0.0000 </r>
       <r>   48.8179    0.0000 </r>
      </set>
      <set comment="kpoint 45">
       <r>    7.4623    1.0000 </r>
       <r>   10.5455    1.0000 </r>
       <r>   12.0214    1.0000 </r>
       <r>   13.1866    1.0000 </r>
       <r>   16.8712    1.0000 </r>
       <r>   20.3656    0.0000 </r>
       <r>   25.2241    0.0000 </r>
       <r>   32.0270    0.0000 </r>
       <r>   36.2601    0.0000 </r>
       <r>   37.9913    0.0000 </r>
       <r>   47.5297    0.0000 </r>
       <r>   48.8171    0.0000 </r>
      </set>
      <set comment="kpoint 46">
       <r>    7.4623    1.0000 </r>
       <r>   10.5455    1.0000 </r>
       <r>   12.0213    1.0000 </r>
       <r>   13.1867    1.0000 </r>
       <r>   16.8712    1.0000 </r>
       <r>   20.3657    0.0000 </r>
       <r>   25.2242    0.0000 </r>
       <r>   32.0269    0.0000 </r>
       <r>   36.2600    0.0000 </r>
       <r>   37.9911    0.0000 </r>
       <r>   47.5297    0.0000 </r>
       <r>   48.8151    0.0000 </r>
      </set>
      <set comment="kpoint 47">
       <r>    7.4623    1.0000 </r>
       <r>   10.5454    1.0000 </r>
       <r>   12.0215    1.0000 </r>
       <r>   13.1867    1.0000 </r>
       <r>   16.8713    1.0000 </r>
       <r>   20.3656    0.0000 </r>
       <r>   25.2243    0.0000 </r>
       <r>   32.0268    0.0000 </r>
       <r>   36.2599    0.0000 </r>
       <r>   37.9913    0.0000 </r>
       <r>   47.5298    0.0000 </r>
       <r>   48.8161    0.0000 </r>
      </set>
      <set comment="kpoint 48">
       <r>    7.4623    1.0000 </r>
       <r>   10.5455    1.0000 </r>
       <r>   12.0214    1.0000 </r>
       <r>   13.1866    1.0000 </r>
       <r>   16.8712    1.0000 </r>
       <r>   20.3656    0.0000 </r>
       <r>   25.2241    0.0000 </r>
       <r>   32.0270    0.0000 </r>
       <r>   36.2601    0.0000 </r>
       <r>   37.9913    0.0000 </r>
       <r>   47.5297    0.0000 </r>
       <r>   48.8247    0.0000 </r>
      </set>
      <set comment="kpoint 49">
       <r>    7.4623    1.0000 </r>
       <r>   10.5456    1.0000 </r>
       <r>   12.0213    1.0000 </r>
       <r>   13.1867    1.0000 </r>
       <r>   16.8712    1.0000 </r>
       <r>   20.3657    0.0000 </r>
       <r>   25.2242    0.0000 </r>
       <r>   32.0269    0.0000 </r>
       <r>   36.2600    0.0000 </r>
       <r>   37.9911    0.0000 </r>
       <r>   47.5297    0.0000 </r>
       <r>   48.8178    0.0000 </r>
      </set>
      <set comment="kpoint 50">
       <r>    7.4623    1.0000 </r>
       <r>   10.5455    1.0000 </r>
       <r>   12.0215    1.0000 </r>
       <r>   13.1867    1.0000 </r>
       <r>   16.8713    1.0000 </r>
       <r>   20.3656    0.0000 </r>
       <r>   25.2243    0.0000 </r>
       <r>   32.0268    0.0000 </r>
       <r>   36.2599    0.0000 </r>
       <r>   37.9913    0.0000 </r>
       <r>   47.5298    0.0000 </r>
       <r>   48.8157    0.0000 </r>
      </set>
      <set comment="kpoint 51">
       <r>    7.4623    1.0000 </r>
       <r>   10.5455    1.0000 </r>
       <r>   12.0214    1.0000 </r>
       <r>   13.1866    1.0000 </r>
       <r>   16.8712    1.0000 </r>
       <r>   20.3656    0.0000 </r>
       <r>   25.2241    0.0000 </r>
       <r>   32.0269    0.0000 </r>
       <r>   36.2600    0.0000 </r>
       <r>   37.9913    0.0000 </r>
       <r>   47.5297    0.0000 </r>
       <r>   48.8155    0.0000 </r>
      </set>
      <set comment="kpoint 52">
       <r>    7.4623    1.0000 </r>
       <r>   10.5456    1.0000 </r>
       <r>   12.0213    1.0000 </r>
       <r>   13.1867    1.0000 </r>
       <r>   16.8712    1.0000 </r>
       <r>   20.3657    0.0000 </r>
       <r>   25.2242    0.0000 </r>
       <r>   32.0269    0.0000 </r>
       <r>   36.2600    0.0000 </r>
       <r>   37.9911    0.0000 </r>
       <r>   47.5297    0.0000 </r>
       <r>   48.8179    0.0000 </r>
      </set>
      <set comment="kpoint 53">
       <r>    7.6217    1.0000 </r>
       <r>   10.9214    1.0000 </r>
       <r>   11.3559    1.0000 </r>
       <r>   12.3219    1.0000 </r>
       <r>   14.7254    1.0000 </r>
       <r>   18.1950    0.0000 </r>
       <r>   29.7328    0.0000 </r>
       <r>   33.7763    0.0000 </r>
       <r>   36.8813    0.0000 </r>
       <r>   41.1406    0.0000 </r>
       <r>   43.0340    0.0000 </r>
       <r>   48.4631    0.0000 </r>
      </set>
      <set comment="kpoint 54">
       <r>    7.6217    1.0000 </r>
       <r>   10.9214    1.0000 </r>
       <r>   11.3559    1.0000 </r>
       <r>   12.3219    1.0000 </r>
       <r>   14.7254    1.0000 </r>
       <r>   18.1950    0.0000 </r>
       <r>   29.7329    0.0000 </r>
       <r>   33.7763    0.0000 </r>
       <r>   36.8813    0.0000 </r>
       <r>   41.1406    0.0000 </r>
       <r>   43.0340    0.0000 </r>
       <r>   48.4616    0.0000 </r>
      </set>
      <set comment="kpoint 55">
       <r>    7.6217    1.0000 </r>
       <r>   10.9214    1.0000 </r>
       <r>   11.3559    1.0000 </r>
       <r>   12.3219    1.0000 </r>
       <r>   14.7254    1.0000 </r>
       <r>   18.1950    0.0000 </r>
       <r>   29.7329    0.0000 </r>
       <r>   33.7763    0.0000 </r>
       <r>   36.8813    0.0000 </r>
       <r>   41.1406    0.0000 </r>
       <r>   43.0340    0.0000 </r>
       <r>   48.4622    0.0000 </r>
      </set>
      <set comment="kpoint 56">
       <r>    7.6217    1.0000 </r>
       <r>   10.9214    1.0000 </r>
       <r>   11.3558    1.0000 </r>
       <r>   12.3221    1.0000 </r>
       <r>   14.7255    1.0000 </r>
       <r>   18.1949    0.0000 </r>
       <r>   29.7328    0.0000 </r>
       <r>   33.7763    0.0000 </r>
       <r>   36.8812    0.0000 </r>
       <r>   41.1407    0.0000 </r>
       <r>   43.0342    0.0000 </r>
       <r>   48.4634    0.0000 </r>
      </set>
      <set comment="kpoint 57">
       <r>    7.6217    1.0000 </r>
       <r>   10.9214    1.0000 </r>
       <r>   11.3558    1.0000 </r>
       <r>   12.3220    1.0000 </r>
       <r>   14.7255    1.0000 </r>
       <r>   18.1949    0.0000 </r>
       <r>   29.7327    0.0000 </r>
       <r>   33.7762    0.0000 </r>
       <r>   36.8813    0.0000 </r>
       <r>   41.1406    0.0000 </r>
       <r>   43.0341    0.0000 </r>
       <r>   48.4633    0.0000 </r>
      </set>
      <set comment="kpoint 58">
       <r>    7.6217    1.0000 </r>
       <r>   10.9214    1.0000 </r>
       <r>   11.3559    1.0000 </r>
       <r>   12.3219    1.0000 </r>
       <r>   14.7254    1.0000 </r>
       <r>   18.1950    0.0000 </r>
       <r>   29.7329    0.0000 </r>
       <r>   33.7763    0.0000 </r>
       <r>   36.8813    0.0000 </r>
       <r>   41.1406    0.0000 </r>
       <r>   43.0340    0.0000 </r>
       <r>   48.4621    0.0000 </r>
      </set>
      <set comment="kpoint 59">
       <r>    7.6217    1.0000 </r>
       <r>   10.9214    1.0000 </r>
       <r>   11.3558    1.0000 </r>
       <r>   12.3221    1.0000 </r>
       <r>   14.7255    1.0000 </r>
       <r>   18.1949    0.0000 </r>
       <r>   29.7328    0.0000 </r>
       <r>   33.7762    0.0000 </r>
       <r>   36.8812    0.0000 </r>
       <r>   41.1407    0.0000 </r>
       <r>   43.0342    0.0000 </r>
       <r>   48.4633    0.0000 </r>
      </set>
      <set comment="kpoint 60">
       <r>    7.6217    1.0000 </r>
       <r>   10.9214    1.0000 </r>
       <r>   11.3558    1.0000 </r>
       <r>   12.3220    1.0000 </r>
       <r>   14.7255    1.0000 </r>
       <r>   18.1949    0.0000 </r>
       <r>   29.7327    0.0000 </r>
       <r>   33.7762    0.0000 </r>
       <r>   36.8813    0.0000 </r>
       <r>   41.1406    0.0000 </r>
       <r>   43.0341    0.0000 </r>
       <r>   48.4621    0.0000 </r>
      </set>
      <set comment="kpoint 61">
       <r>    7.6217    1.0000 </r>
       <r>   10.9215    1.0000 </r>
       <r>   11.3559    1.0000 </r>
       <r>   12.3219    1.0000 </r>
       <r>   14.7254    1.0000 </r>
       <r>   18.1950    0.0000 </r>
       <r>   29.7329    0.0000 </r>
       <r>   33.7763    0.0000 </r>
       <r>   36.8813    0.0000 </r>
       <r>   41.1406    0.0000 </r>
       <r>   43.0340    0.0000 </r>
       <r>   48.4728    0.0000 </r>
      </set>
      <set comment="kpoint 62">
       <r>    7.6217    1.0000 </r>
       <r>   10.9214    1.0000 </r>
       <r>   11.3558    1.0000 </r>
       <r>   12.3221    1.0000 </r>
       <r>   14.7255    1.0000 </r>
       <r>   18.1949    0.0000 </r>
       <r>   29.7328    0.0000 </r>
       <r>   33.7763    0.0000 </r>
       <r>   36.8812    0.0000 </r>
       <r>   41.1407    0.0000 </r>
       <r>   43.0342    0.0000 </r>
       <r>   48.4620    0.0000 </r>
      </set>
      <set comment="kpoint 63">
       <r>    7.6217    1.0000 </r>
       <r>   10.9214    1.0000 </r>
       <r>   11.3558    1.0000 </r>
       <r>   12.3220    1.0000 </r>
       <r>   14.7255    1.0000 </r>
       <r>   18.1949    0.0000 </r>
       <r>   29.7327    0.0000 </r>
       <r>   33.7762    0.0000 </r>
       <r>   36.8813    0.0000 </r>
       <r>   41.1406    0.0000 </r>
       <r>   43.0341    0.0000 </r>
       <r>   48.4627    0.0000 </r>
      </set>
      <set comment="kpoint 64">
       <r>    7.6217    1.0000 </r>
       <r>   10.9214    1.0000 </r>
       <r>   11.3559    1.0000 </r>
       <r>   12.3219    1.0000 </r>
       <r>   14.7254    1.0000 </r>
       <r>   18.1950    0.0000 </r>
       <r>   29.7328    0.0000 </r>
       <r>   33.7763    0.0000 </r>
       <r>   36.8813    0.0000 </r>
       <r>   41.1406    0.0000 </r>
       <r>   43.0340    0.0000 </r>
       <r>   48.4637    0.0000 </r>
      </set>
      <set comment="kpoint 65">
       <r>    6.1859    1.0000 </r>
       <r>   10.2771    1.0000 </r>
       <r>   12.0004    1.0000 </r>
       <r>   12.5025    1.0000 </r>
       <r>   13.5064    1.0000 </r>
       <r>   15.7490    1.0000 </r>
       <r>   32.8231    0.0000 </r>
       <r>   34.5505    0.0000 </r>
       <r>   38.2327    0.0000 </r>
       <r>   41.2301    0.0000 </r>
       <r>   42.7196    0.0000 </r>
       <r>   48.1011    0.0000 </r>
      </set>
      <set comment="kpoint 66">
       <r>    6.1859    1.0000 </r>
       <r>   10.2771    1.0000 </r>
       <r>   12.0004    1.0000 </r>
       <r>   12.5025    1.0000 </r>
       <r>   13.5064    1.0000 </r>
       <r>   15.7490    1.0000 </r>
       <r>   32.8231    0.0000 </r>
       <r>   34.5505    0.0000 </r>
       <r>   38.2327    0.0000 </r>
       <r>   41.2301    0.0000 </r>
       <r>   42.7196    0.0000 </r>
       <r>   48.1010    0.0000 </r>
      </set>
      <set comment="kpoint 67">
       <r>    6.1859    1.0000 </r>
       <r>   10.2771    1.0000 </r>
       <r>   12.0004    1.0000 </r>
       <r>   12.5025    1.0000 </r>
       <r>   13.5064    1.0000 </r>
       <r>   15.7490    1.0000 </r>
       <r>   32.8231    0.0000 </r>
       <r>   34.5505    0.0000 </r>
       <r>   38.2327    0.0000 </r>
       <r>   41.2301    0.0000 </r>
       <r>   42.7196    0.0000 </r>
       <r>   48.1013    0.0000 </r>
      </set>
      <set comment="kpoint 68">
       <r>    6.1859    1.0000 </r>
       <r>   10.2771    1.0000 </r>
       <r>   12.0003    1.0000 </r>
       <r>   12.5026    1.0000 </r>
       <r>   13.5065    1.0000 </r>
       <r>   15.7490    1.0000 </r>
       <r>   32.8230    0.0000 </r>
       <r>   34.5504    0.0000 </r>
       <r>   38.2327    0.0000 </r>
       <r>   41.2299    0.0000 </r>
       <r>   42.7196    0.0000 </r>
       <r>   48.1009    0.0000 </r>
      </set>
      <set comment="kpoint 69">
       <r>    6.1859    1.0000 </r>
       <r>   10.2771    1.0000 </r>
       <r>   12.0003    1.0000 </r>
       <r>   12.5026    1.0000 </r>
       <r>   13.5065    1.0000 </r>
       <r>   15.7490    1.0000 </r>
       <r>   32.8230    0.0000 </r>
       <r>   34.5504    0.0000 </r>
       <r>   38.2327    0.0000 </r>
       <r>   41.2299    0.0000 </r>
       <r>   42.7196    0.0000 </r>
       <r>   48.1010    0.0000 </r>
      </set>
      <set comment="kpoint 70">
       <r>    6.1859    1.0000 </r>
       <r>   10.2771    1.0000 </r>
       <r>   12.0002    1.0000 </r>
       <r>   12.5026    1.0000 </r>
       <r>   13.5065    1.0000 </r>
       <r>   15.7491    1.0000 </r>
       <r>   32.8230    0.0000 </r>
       <r>   34.5504    0.0000 </r>
       <r>   38.2327    0.0000 </r>
       <r>   41.2299    0.0000 </r>
       <r>   42.7197    0.0000 </r>
       <r>   48.1010    0.0000 </r>
      </set>
      <set comment="kpoint 71">
       <r>    7.3463    1.0000 </r>
       <r>    8.5551    1.0000 </r>
       <r>   12.8648    1.0000 </r>
       <r>   14.5618    1.0000 </r>
       <r>   14.5618    1.0000 </r>
       <r>   16.1799    1.0000 </r>
       <r>   35.5026    0.0000 </r>
       <r>   35.5028    0.0000 </r>
       <r>   35.8270    0.0000 </r>
       <r>   38.7743    0.0000 </r>
       <r>   41.5336    0.0000 </r>
       <r>   46.8245    0.0000 </r>
      </set>
      <set comment="kpoint 72">
       <r>    7.3463    1.0000 </r>
       <r>    8.5551    1.0000 </r>
       <r>   12.8648    1.0000 </r>
       <r>   14.5618    1.0000 </r>
       <r>   14.5618    1.0000 </r>
       <r>   16.1799    1.0000 </r>
       <r>   35.5025    0.0000 </r>
       <r>   35.5028    0.0000 </r>
       <r>   35.8270    0.0000 </r>
       <r>   38.7743    0.0000 </r>
       <r>   41.5336    0.0000 </r>
       <r>   46.8245    0.0000 </r>
      </set>
      <set comment="kpoint 73">
       <r>    7.3463    1.0000 </r>
       <r>    8.5551    1.0000 </r>
       <r>   12.8648    1.0000 </r>
       <r>   14.5618    1.0000 </r>
       <r>   14.5618    1.0000 </r>
       <r>   16.1799    1.0000 </r>
       <r>   35.5026    0.0000 </r>
       <r>   35.5028    0.0000 </r>
       <r>   35.8270    0.0000 </r>
       <r>   38.7743    0.0000 </r>
       <r>   41.5336    0.0000 </r>
       <r>   46.8245    0.0000 </r>
      </set>
      <set comment="kpoint 74">
       <r>    7.6249    1.0000 </r>
       <r>    8.4303    1.0000 </r>
       <r>   12.7339    1.0000 </r>
       <r>   14.7371    1.0000 </r>
       <r>   17.4025    0.2933 </r>
       <r>   18.3924    0.0000 </r>
       <r>   29.6158    0.0000 </r>
       <r>   33.6028    0.0000 </r>
       <r>   34.3505    0.0000 </r>
       <r>   40.0611    0.0000 </r>
       <r>   43.6140    0.0000 </r>
       <r>   47.0635    0.0000 </r>
      </set>
      <set comment="kpoint 75">
       <r>    7.6249    1.0000 </r>
       <r>    8.4303    1.0000 </r>
       <r>   12.7339    1.0000 </r>
       <r>   14.7371    1.0000 </r>
       <r>   17.4025    0.2933 </r>
       <r>   18.3924    0.0000 </r>
       <r>   29.6158    0.0000 </r>
       <r>   33.6028    0.0000 </r>
       <r>   34.3505    0.0000 </r>
       <r>   40.0611    0.0000 </r>
       <r>   43.6140    0.0000 </r>
       <r>   47.0634    0.0000 </r>
      </set>
      <set comment="kpoint 76">
       <r>    7.6249    1.0000 </r>
       <r>    8.4303    1.0000 </r>
       <r>   12.7339    1.0000 </r>
       <r>   14.7371    1.0000 </r>
       <r>   17.4025    0.2933 </r>
       <r>   18.3924    0.0000 </r>
       <r>   29.6158    0.0000 </r>
       <r>   33.6028    0.0000 </r>
       <r>   34.3505    0.0000 </r>
       <r>   40.0611    0.0000 </r>
       <r>   43.6140    0.0000 </r>
       <r>   47.0635    0.0000 </r>
      </set>
      <set comment="kpoint 77">
       <r>    7.6248    1.0000 </r>
       <r>    8.4303    1.0000 </r>
       <r>   12.7339    1.0000 </r>
       <r>   14.7371    1.0000 </r>
       <r>   17.4026    0.2930 </r>
       <r>   18.3924    0.0000 </r>
       <r>   29.6158    0.0000 </r>
       <r>   33.6029    0.0000 </r>
       <r>   34.3504    0.0000 </r>
       <r>   40.0611    0.0000 </r>
       <r>   43.6138    0.0000 </r>
       <r>   47.0635    0.0000 </r>
      </set>
      <set comment="kpoint 78">
       <r>    7.6249    1.0000 </r>
       <r>    8.4303    1.0000 </r>
       <r>   12.7339    1.0000 </r>
       <r>   14.7371    1.0000 </r>
       <r>   17.4025    0.2936 </r>
       <r>   18.3924    0.0000 </r>
       <r>   29.6156    0.0000 </r>
       <r>   33.6030    0.0000 </r>
       <r>   34.3506    0.0000 </r>
       <r>   40.0612    0.0000 </r>
       <r>   43.6138    0.0000 </r>
       <r>   47.0636    0.0000 </r>
      </set>
      <set comment="kpoint 79">
       <r>    7.6249    1.0000 </r>
       <r>    8.4303    1.0000 </r>
       <r>   12.7339    1.0000 </r>
       <r>   14.7371    1.0000 </r>
       <r>   17.4025    0.2933 </r>
       <r>   18.3924    0.0000 </r>
       <r>   29.6158    0.0000 </r>
       <r>   33.6028    0.0000 </r>
       <r>   34.3505    0.0000 </r>
       <r>   40.0611    0.0000 </r>
       <r>   43.6140    0.0000 </r>
       <r>   47.0635    0.0000 </r>
      </set>
      <set comment="kpoint 80">
       <r>    7.6248    1.0000 </r>
       <r>    8.4303    1.0000 </r>
       <r>   12.7339    1.0000 </r>
       <r>   14.7371    1.0000 </r>
       <r>   17.4026    0.2930 </r>
       <r>   18.3924    0.0000 </r>
       <r>   29.6157    0.0000 </r>
       <r>   33.6030    0.0000 </r>
       <r>   34.3504    0.0000 </r>
       <r>   40.0611    0.0000 </r>
       <r>   43.6138    0.0000 </r>
       <r>   47.0636    0.0000 </r>
      </set>
      <set comment="kpoint 81">
       <r>    7.6249    1.0000 </r>
       <r>    8.4303    1.0000 </r>
       <r>   12.7339    1.0000 </r>
       <r>   14.7371    1.0000 </r>
       <r>   17.4025    0.2936 </r>
       <r>   18.3924    0.0000 </r>
       <r>   29.6156    0.0000 </r>
       <r>   33.6030    0.0000 </r>
       <r>   34.3506    0.0000 </r>
       <r>   40.0612    0.0000 </r>
       <r>   43.6138    0.0000 </r>
       <r>   47.0636    0.0000 </r>
      </set>
      <set comment="kpoint 82">
       <r>    7.6249    1.0000 </r>
       <r>    8.4303    1.0000 </r>
       <r>   12.7339    1.0000 </r>
       <r>   14.7371    1.0000 </r>
       <r>   17.4025    0.2933 </r>
       <r>   18.3924    0.0000 </r>
       <r>   29.6158    0.0000 </r>
       <r>   33.6028    0.0000 </r>
       <r>   34.3505    0.0000 </r>
       <r>   40.0611    0.0000 </r>
       <r>   43.6140    0.0000 </r>
       <r>   47.0635    0.0000 </r>
      </set>
      <set comment="kpoint 83">
       <r>    7.6249    1.0000 </r>
       <r>    8.4303    1.0000 </r>
       <r>   12.7339    1.0000 </r>
       <r>   14.7371    1.0000 </r>
       <r>   17.4026    0.2930 </r>
       <r>   18.3924    0.0000 </r>
       <r>   29.6158    0.0000 </r>
       <r>   33.6029    0.0000 </r>
       <r>   34.3504    0.0000 </r>
       <r>   40.0611    0.0000 </r>
       <r>   43.6138    0.0000 </r>
       <r>   47.0635    0.0000 </r>
      </set>
      <set comment="kpoint 84">
       <r>    7.6249    1.0000 </r>
       <r>    8.4303    1.0000 </r>
       <r>   12.7339    1.0000 </r>
       <r>   14.7371    1.0000 </r>
       <r>   17.4025    0.2935 </r>
       <r>   18.3924    0.0000 </r>
       <r>   29.6156    0.0000 </r>
       <r>   33.6030    0.0000 </r>
       <r>   34.3505    0.0000 </r>
       <r>   40.0612    0.0000 </r>
       <r>   43.6138    0.0000 </r>
       <r>   47.0636    0.0000 </r>
      </set>
      <set comment="kpoint 85">
       <r>    7.6249    1.0000 </r>
       <r>    8.4303    1.0000 </r>
       <r>   12.7339    1.0000 </r>
       <r>   14.7371    1.0000 </r>
       <r>   17.4025    0.2934 </r>
       <r>   18.3924    0.0000 </r>
       <r>   29.6158    0.0000 </r>
       <r>   33.6028    0.0000 </r>
       <r>   34.3505    0.0000 </r>
       <r>   40.0611    0.0000 </r>
       <r>   43.6140    0.0000 </r>
       <r>   47.0635    0.0000 </r>
      </set>
      <set comment="kpoint 86">
       <r>    8.0298    1.0000 </r>
       <r>    9.4915    1.0000 </r>
       <r>   12.0678    1.0000 </r>
       <r>   14.0800    1.0000 </r>
       <r>   17.0556    1.0000 </r>
       <r>   23.6098    0.0000 </r>
       <r>   24.5271    0.0000 </r>
       <r>   31.9285    0.0000 </r>
       <r>   35.1980    0.0000 </r>
       <r>   38.0872    0.0000 </r>
       <r>   46.8550    0.0000 </r>
       <r>   47.6087    0.0000 </r>
      </set>
      <set comment="kpoint 87">
       <r>    8.0298    1.0000 </r>
       <r>    9.4915    1.0000 </r>
       <r>   12.0678    1.0000 </r>
       <r>   14.0800    1.0000 </r>
       <r>   17.0556    1.0000 </r>
       <r>   23.6098    0.0000 </r>
       <r>   24.5271    0.0000 </r>
       <r>   31.9285    0.0000 </r>
       <r>   35.1980    0.0000 </r>
       <r>   38.0872    0.0000 </r>
       <r>   46.8550    0.0000 </r>
       <r>   47.6087    0.0000 </r>
      </set>
      <set comment="kpoint 88">
       <r>    8.0297    1.0000 </r>
       <r>    9.4915    1.0000 </r>
       <r>   12.0678    1.0000 </r>
       <r>   14.0800    1.0000 </r>
       <r>   17.0556    1.0000 </r>
       <r>   23.6098    0.0000 </r>
       <r>   24.5271    0.0000 </r>
       <r>   31.9285    0.0000 </r>
       <r>   35.1980    0.0000 </r>
       <r>   38.0872    0.0000 </r>
       <r>   46.8550    0.0000 </r>
       <r>   47.6087    0.0000 </r>
      </set>
      <set comment="kpoint 89">
       <r>    8.0297    1.0000 </r>
       <r>    9.4915    1.0000 </r>
       <r>   12.0678    1.0000 </r>
       <r>   14.0801    1.0000 </r>
       <r>   17.0556    1.0000 </r>
       <r>   23.6096    0.0000 </r>
       <r>   24.5272    0.0000 </r>
       <r>   31.9283    0.0000 </r>
       <r>   35.1981    0.0000 </r>
       <r>   38.0872    0.0000 </r>
       <r>   46.8551    0.0000 </r>
       <r>   47.6087    0.0000 </r>
      </set>
[...]
       </set>
       <set comment="band 5">
        <r>  0.0000  0.0051  0.0000  0.0102  0.0261  0.2431  0.0000  0.4861  0.2089 </r>
       </set>
       <set comment="band 6">
        <r>  0.4304  0.1435  0.0403  0.0718  0.0354  0.0480  0.1053  0.0240  0.0044 </r>
       </set>
       <set comment="band 7">
        <r>  0.0000  0.2505  0.0000  0.5010  0.0409  0.0108  0.0000  0.0215  0.3270 </r>
       </set>
       <set comment="band 8">
        <r>  0.2048  0.2407  0.0579  0.1204  0.3481  0.0121  0.0030  0.0061  0.0435 </r>
       </set>
       <set comment="band 9">
        <r>  0.0028  0.0011  0.4140  0.0006  0.1102  0.1559  0.2301  0.0780  0.0138 </r>
       </set>
       <set comment="band 10">
        <r>  0.0006  0.0359  0.0756  0.0179  0.0571  0.0146  0.4207  0.0073  0.0071 </r>
       </set>
       <set comment="band 11">
        <r>  0.0000  0.0020  0.0000  0.0039  0.0195  0.0910  0.0000  0.1821  0.1558 </r>
       </set>
       <set comment="band 12">
        <r>  0.0617  1.9500  2.1526  0.9608  0.0710  0.0000  0.0508  0.0000  0.0088 </r>
       </set>
      </set>
      <set comment="kpoint 162">
       <set comment="band 1">
        <r>  0.0232  0.0162  0.0011  0.0561  0.0045  0.2787  0.0097  0.5186  0.1050 </r>
       </set>
       <set comment="band 2">
        <r>  0.0201  0.1245  0.0727  0.0010  0.0351  0.4007  0.0001  0.0840  0.3278 </r>
       </set>
       <set comment="band 3">
        <r>  0.0000  0.0821  0.1231  0.0410  0.0137  0.1289  0.0274  0.2577  0.3819 </r>
       </set>
       <set comment="band 4">
        <r>  0.0553  0.0010  0.0084  0.0133  0.5940  0.0110  0.2089  0.0268  0.0380 </r>
       </set>
       <set comment="band 5">
        <r>  0.0000  0.0051  0.0077  0.0026  0.2578  0.0114  0.6720  0.0227  0.0003 </r>
       </set>
       <set comment="band 6">
        <r>  0.4304  0.1435  0.1104  0.0016  0.0092  0.0743  0.0129  0.0188  0.1020 </r>
       </set>
       <set comment="band 7">
        <r>  0.0000  0.2505  0.3757  0.1252  0.0001  0.0515  0.0683  0.1030  0.1771 </r>
       </set>
       <set comment="band 8">
        <r>  0.2048  0.2407  0.1771  0.0012  0.1524  0.2078  0.0403  0.0085  0.0037 </r>
       </set>
       <set comment="band 9">
        <r>  0.0028  0.0011  0.0908  0.3238  0.0310  0.2351  0.0054  0.3027  0.0138 </r>
       </set>
       <set comment="band 10">
        <r>  0.0006  0.0359  0.0005  0.0931  0.0002  0.0715  0.0082  0.1658  0.2612 </r>
       </set>
       <set comment="band 11">
        <r>  0.0000  0.0020  0.0030  0.0010  0.0367  0.0738  0.0040  0.1477  0.1862 </r>
       </set>
       <set comment="band 12">
        <r>  0.0645  1.9072  0.0203  3.1026  0.0192  0.0526  0.0013  0.0168  0.0419 </r>
       </set>
      </set>
      <set comment="kpoint 163">
       <set comment="band 1">
        <r>  0.0232  0.0327  0.0356  0.0050  0.3752  0.4210  0.1007  0.0125  0.0070 </r>
       </set>
       <set comment="band 2">
        <r>  0.0201  0.0077  0.0264  0.1641  0.0028  0.0469  0.0242  0.3414  0.4323 </r>
       </set>
       <set comment="band 3">
        <r>  0.0000  0.0821  0.1231  0.0410  0.2112  0.0061  0.5799  0.0122  0.0004 </r>
       </set>
       <set comment="band 4">
        <r>  0.0553  0.0141  0.0029  0.0056  0.2755  0.2814  0.0939  0.2160  0.0117 </r>
       </set>
       <set comment="band 5">
        <r>  0.0000  0.0051  0.0077  0.0026  0.0100  0.1493  0.0511  0.2987  0.4550 </r>
       </set>
       <set comment="band 6">
        <r>  0.4304  0.0269  0.0173  0.2114  0.0109  0.0663  0.0141  0.0218  0.1040 </r>
       </set>
       <set comment="band 7">
        <r>  0.0000  0.2505  0.3757  0.1252  0.1110  0.0152  0.2317  0.0304  0.0118 </r>
       </set>
       <set comment="band 8">
        <r>  0.2048  0.0386  0.0324  0.3479  0.0055  0.1219  0.0070  0.2274  0.0509 </r>
       </set>
       <set comment="band 9">
        <r>  0.0028  0.2760  0.1170  0.0226  0.3854  0.0815  0.1194  0.0000  0.0016 </r>
       </set>
       <set comment="band 10">
        <r>  0.0006  0.0504  0.0643  0.0148  0.0101  0.1727  0.0014  0.0914  0.2312 </r>
       </set>
       <set comment="band 11">
        <r>  0.0000  0.0020  0.0030  0.0010  0.0879  0.0009  0.3323  0.0018  0.0256 </r>
       </set>
       <set comment="band 12">
        <r>  0.0605  1.3790  2.5650  1.1290  0.0009  0.0018  0.0009  0.0685  0.0586 </r>
       </set>
      </set>
      <set comment="kpoint 164">
       <set comment="band 1">
        <r>  0.0232  0.0327  0.0243  0.0164  0.7538  0.0425  0.0048  0.0212  0.0942 </r>
       </set>
       <set comment="band 2">
        <r>  0.0201  0.0077  0.1867  0.0038  0.0259  0.0238  0.7827  0.0119  0.0032 </r>
       </set>
       <set comment="band 3">
        <r>  0.0000  0.0820  0.0000  0.1641  0.0263  0.1909  0.0000  0.3818  0.2106 </r>
       </set>
       <set comment="band 4">
        <r>  0.0553  0.0141  0.0014  0.0071  0.0388  0.5182  0.0577  0.2591  0.0049 </r>
       </set>
       <set comment="band 5">
        <r>  0.0000  0.0051  0.0000  0.0102  0.0810  0.0783  0.0000  0.1566  0.6481 </r>
       </set>
       <set comment="band 6">
        <r>  0.4304  0.0269  0.2153  0.0134  0.0292  0.0480  0.1123  0.0240  0.0036 </r>
       </set>
       <set comment="band 7">
        <r>  0.0000  0.2505  0.0000  0.5010  0.0036  0.1226  0.0000  0.2452  0.0287 </r>
       </set>
       <set comment="band 8">
        <r>  0.2048  0.0386  0.3611  0.0193  0.1153  0.0121  0.2648  0.0061  0.0144 </r>
       </set>
       <set comment="band 9">
        <r>  0.0028  0.2760  0.0017  0.1380  0.3110  0.1559  0.0042  0.0780  0.0389 </r>
       </set>
       <set comment="band 10">
        <r>  0.0006  0.0504  0.0538  0.0252  0.1682  0.0146  0.2957  0.0073  0.0210 </r>
       </set>
       <set comment="band 11">
        <r>  0.0000  0.0020  0.0000  0.0039  0.0303  0.0584  0.0000  0.1169  0.2428 </r>
       </set>
       <set comment="band 12">
        <r>  0.0628  1.4536  2.8659  0.7248  0.0026  0.0000  0.1282  0.0000  0.0003 </r>
       </set>
      </set>
      <set comment="kpoint 165">
       <set comment="band 1">
        <r>  0.0232  0.0162  0.0011  0.0561  0.0045  0.2787  0.0097  0.5186  0.1050 </r>
       </set>
       <set comment="band 2">
        <r>  0.0201  0.1244  0.0727  0.0010  0.0351  0.4007  0.0001  0.0840  0.3278 </r>
       </set>
       <set comment="band 3">
        <r>  0.0000  0.0821  0.1231  0.0410  0.0137  0.1289  0.0274  0.2577  0.3819 </r>
       </set>
       <set comment="band 4">
        <r>  0.0553  0.0010  0.0084  0.0133  0.5939  0.0110  0.2089  0.0268  0.0380 </r>
       </set>
       <set comment="band 5">
        <r>  0.0000  0.0051  0.0077  0.0026  0.2578  0.0114  0.6720  0.0227  0.0003 </r>
       </set>
       <set comment="band 6">
        <r>  0.4304  0.1435  0.1104  0.0016  0.0092  0.0743  0.0129  0.0188  0.1020 </r>
       </set>
       <set comment="band 7">
        <r>  0.0000  0.2505  0.3758  0.1252  0.0001  0.0515  0.0683  0.1030  0.1771 </r>
       </set>
       <set comment="band 8">
        <r>  0.2048  0.2407  0.1770  0.0012  0.1524  0.2078  0.0403  0.0085  0.0037 </r>
       </set>
       <set comment="band 9">
        <r>  0.0028  0.0011  0.0908  0.3237  0.0310  0.2351  0.0054  0.3027  0.0138 </r>
       </set>
       <set comment="band 10">
        <r>  0.0006  0.0359  0.0005  0.0931  0.0002  0.0715  0.0082  0.1658  0.2612 </r>
       </set>
       <set comment="band 11">
        <r>  0.0000  0.0020  0.0030  0.0010  0.0367  0.0738  0.0040  0.1476  0.1862 </r>
       </set>
       <set comment="band 12">
        <r>  0.0605  1.9605  0.0158  3.0899  0.0188  0.0523  0.0013  0.0169  0.0416 </r>
       </set>
      </set>
      <set comment="kpoint 166">
       <set comment="band 1">
        <r>  0.0232  0.0162  0.0356  0.0216  0.1796  0.1036  0.1007  0.3300  0.2027 </r>
       </set>
       <set comment="band 2">
        <r>  0.0201  0.1245  0.0264  0.0474  0.2066  0.2291  0.0242  0.1592  0.2285 </r>
       </set>
       <set comment="band 3">
        <r>  0.0000  0.0820  0.1231  0.0410  0.1365  0.0061  0.5799  0.0122  0.0750 </r>
       </set>
       <set comment="band 4">
        <r>  0.0553  0.0010  0.0029  0.0188  0.2267  0.3782  0.0939  0.1192  0.0605 </r>
       </set>
       <set comment="band 5">
        <r>  0.0000  0.0051  0.0077  0.0026  0.1198  0.1493  0.0511  0.2987  0.3452 </r>
       </set>
       <set comment="band 6">
        <r>  0.4304  0.1435  0.0173  0.0947  0.0806  0.0029  0.0141  0.0853  0.0343 </r>
       </set>
       <set comment="band 7">
        <r>  0.0000  0.2505  0.3757  0.1252  0.0364  0.0152  0.2317  0.0304  0.0864 </r>
       </set>
       <set comment="band 8">
        <r>  0.2048  0.2407  0.0324  0.1458  0.0399  0.3203  0.0070  0.0290  0.0165 </r>
       </set>
       <set comment="band 9">
        <r>  0.0028  0.0011  0.1170  0.2975  0.2580  0.0081  0.1194  0.0734  0.1290 </r>
       </set>
       <set comment="band 10">
        <r>  0.0006  0.0359  0.0643  0.0293  0.0502  0.0215  0.0014  0.2427  0.1910 </r>
       </set>
       <set comment="band 11">
        <r>  0.0000  0.0020  0.0030  0.0010  0.1096  0.0009  0.3322  0.0018  0.0038 </r>
       </set>
       <set comment="band 12">
        <r>  0.0669  1.9863  2.4500  0.5707  0.0168  0.0554  0.0009  0.0162  0.0433 </r>
       </set>
      </set>
      <set comment="kpoint 167">
       <set comment="band 1">
        <r>  0.0232  0.0327  0.0011  0.0396  0.0654  0.7309  0.0097  0.0664  0.0441 </r>
       </set>
       <set comment="band 2">
        <r>  0.0201  0.0077  0.0727  0.1178  0.0459  0.0039  0.0001  0.4808  0.3169 </r>
       </set>
       <set comment="band 3">
        <r>  0.0000  0.0820  0.1231  0.0410  0.0884  0.1289  0.0274  0.2577  0.3073 </r>
       </set>
       <set comment="band 4">
        <r>  0.0554  0.0141  0.0084  0.0001  0.5211  0.0358  0.2089  0.0020  0.1108 </r>
       </set>
       <set comment="band 5">
        <r>  0.0000  0.0051  0.0077  0.0026  0.1480  0.0114  0.6720  0.0227  0.1101 </r>
       </set>
       <set comment="band 6">
        <r>  0.4304  0.0269  0.1104  0.1183  0.0757  0.0015  0.0129  0.0916  0.0355 </r>
       </set>
       <set comment="band 7">
        <r>  0.0000  0.2505  0.3758  0.1252  0.0747  0.0515  0.0683  0.1030  0.1026 </r>
       </set>
       <set comment="band 8">
        <r>  0.2048  0.0386  0.1770  0.2033  0.0703  0.0571  0.0403  0.1592  0.0858 </r>
       </set>
       <set comment="band 9">
        <r>  0.0028  0.2760  0.0908  0.0489  0.0040  0.4629  0.0054  0.0749  0.0408 </r>
       </set>
       <set comment="band 10">
        <r>  0.0006  0.0504  0.0005  0.0786  0.0959  0.0869  0.0082  0.1504  0.1655 </r>
       </set>
       <set comment="band 11">
        <r>  0.0000  0.0020  0.0030  0.0010  0.0149  0.0738  0.0040  0.1477  0.2079 </r>
       </set>
       <set comment="band 12">
        <r>  0.0614  1.4310  0.0139  3.6134  0.0005  0.0021  0.0013  0.0670  0.0600 </r>
       </set>
      </set>
      <set comment="kpoint 168">
       <set comment="band 1">
        <r>  0.0232  0.0162  0.0356  0.0216  0.1796  0.1036  0.1007  0.3300  0.2027 </r>
       </set>
       <set comment="band 2">
        <r>  0.0201  0.1244  0.0264  0.0474  0.2066  0.2291  0.0242  0.1592  0.2285 </r>
       </set>
       <set comment="band 3">
        <r>  0.0000  0.0821  0.1231  0.0410  0.1365  0.0061  0.5799  0.0122  0.0750 </r>
       </set>
       <set comment="band 4">
        <r>  0.0553  0.0010  0.0029  0.0188  0.2267  0.3782  0.0939  0.1192  0.0605 </r>
       </set>
       <set comment="band 5">
        <r>  0.0000  0.0051  0.0077  0.0026  0.1198  0.1493  0.0511  0.2987  0.3452 </r>
       </set>
       <set comment="band 6">
        <r>  0.4304  0.1435  0.0173  0.0947  0.0806  0.0029  0.0141  0.0853  0.0343 </r>
       </set>
       <set comment="band 7">
        <r>  0.0000  0.2505  0.3758  0.1253  0.0364  0.0152  0.2317  0.0304  0.0864 </r>
       </set>
       <set comment="band 8">
        <r>  0.2048  0.2407  0.0324  0.1458  0.0399  0.3203  0.0070  0.0290  0.0165 </r>
       </set>
       <set comment="band 9">
        <r>  0.0028  0.0011  0.1170  0.2975  0.2580  0.0081  0.1194  0.0734  0.1290 </r>
       </set>
       <set comment="band 10">
        <r>  0.0006  0.0359  0.0643  0.0293  0.0502  0.0215  0.0014  0.2427  0.1910 </r>
       </set>
       <set comment="band 11">
        <r>  0.0000  0.0020  0.0030  0.0010  0.1096  0.0009  0.3322  0.0018  0.0038 </r>
       </set>
       <set comment="band 12">
        <r>  0.0627  1.8916  2.5058  0.6401  0.0168  0.0546  0.0009  0.0160  0.0429 </r>
       </set>
      </set>
      <set comment="kpoint 169">
       <set comment="band 1">
        <r>  0.0232  0.0327  0.0011  0.0396  0.0654  0.7309  0.0097  0.0664  0.0441 </r>
       </set>
       <set comment="band 2">
        <r>  0.0201  0.0077  0.0727  0.1178  0.0459  0.0039  0.0001  0.4808  0.3169 </r>
       </set>
       <set comment="band 3">
        <r>  0.0000  0.0821  0.1231  0.0410  0.0884  0.1289  0.0274  0.2577  0.3073 </r>
       </set>
       <set comment="band 4">
        <r>  0.0553  0.0141  0.0084  0.0001  0.5211  0.0358  0.2089  0.0020  0.1108 </r>
       </set>
       <set comment="band 5">
        <r>  0.0000  0.0051  0.0077  0.0026  0.1480  0.0114  0.6720  0.0227  0.1101 </r>
       </set>
       <set comment="band 6">
        <r>  0.4304  0.0269  0.1104  0.1182  0.0757  0.0015  0.0129  0.0916  0.0355 </r>
       </set>
       <set comment="band 7">
        <r>  0.0000  0.2505  0.3757  0.1253  0.0747  0.0515  0.0683  0.1030  0.1026 </r>
       </set>
       <set comment="band 8">
        <r>  0.2048  0.0386  0.1771  0.2033  0.0703  0.0571  0.0403  0.1592  0.0858 </r>
       </set>
       <set comment="band 9">
        <r>  0.0028  0.2760  0.0908  0.0489  0.0040  0.4629  0.0054  0.0749  0.0408 </r>
       </set>
       <set comment="band 10">
        <r>  0.0006  0.0504  0.0005  0.0786  0.0959  0.0869  0.0082  0.1504  0.1655 </r>
       </set>
       <set comment="band 11">
        <r>  0.0000  0.0020  0.0030  0.0010  0.0149  0.0738  0.0040  0.1477  0.2079 </r>
       </set>
       <set comment="band 12">
        <r>  0.0646  1.4146  0.0112  3.6209  0.0004  0.0022  0.0013  0.0671  0.0602 </r>
       </set>
      </set>
      <set comment="kpoint 170">
       <set comment="band 1">
        <r>  0.0232  0.0327  0.0356  0.0050  0.3752  0.4210  0.1007  0.0125  0.0070 </r>
       </set>
       <set comment="band 2">
        <r>  0.0201  0.0077  0.0264  0.1641  0.0028  0.0469  0.0242  0.3414  0.4323 </r>
       </set>
       <set comment="band 3">
        <r>  0.0000  0.0820  0.1231  0.0410  0.2112  0.0061  0.5799  0.0122  0.0004 </r>
       </set>
       <set comment="band 4">
        <r>  0.0553  0.0141  0.0029  0.0056  0.2755  0.2814  0.0939  0.2160  0.0117 </r>
       </set>
       <set comment="band 5">
        <r>  0.0000  0.0051  0.0077  0.0026  0.0100  0.1493  0.0511  0.2987  0.4550 </r>
       </set>
       <set comment="band 6">
        <r>  0.4304  0.0268  0.0173  0.2114  0.0109  0.0663  0.0141  0.0218  0.1040 </r>
       </set>
       <set comment="band 7">
        <r>  0.0000  0.2505  0.3758  0.1252  0.1110  0.0152  0.2317  0.0304  0.0118 </r>
       </set>
       <set comment="band 8">
        <r>  0.2048  0.0386  0.0324  0.3479  0.0055  0.1219  0.0070  0.2274  0.0508 </r>
       </set>
       <set comment="band 9">
        <r>  0.0028  0.2760  0.1170  0.0226  0.3854  0.0815  0.1194  0.0000  0.0016 </r>
       </set>
       <set comment="band 10">
        <r>  0.0006  0.0504  0.0643  0.0148  0.0101  0.1727  0.0014  0.0914  0.2312 </r>
       </set>
       <set comment="band 11">
        <r>  0.0000  0.0020  0.0030  0.0010  0.0879  0.0009  0.3322  0.0018  0.0256 </r>
       </set>
       <set comment="band 12">
        <r>  0.0656  1.4310  2.5654  1.0319  0.0009  0.0017  0.0010  0.0688  0.0588 </r>
       </set>
      </set>
      <set comment="kpoint 171">
       <set comment="band 1">
        <r>  0.0232  0.0327  0.0243  0.0164  0.7538  0.0425  0.0048  0.0212  0.0942 </r>
       </set>
       <set comment="band 2">
        <r>  0.0201  0.0077  0.1867  0.0038  0.0259  0.0238  0.7827  0.0119  0.0032 </r>
       </set>
       <set comment="band 3">
        <r>  0.0000  0.0820  0.0000  0.1641  0.0263  0.1909  0.0000  0.3818  0.2106 </r>
       </set>
       <set comment="band 4">
        <r>  0.0553  0.0141  0.0014  0.0071  0.0388  0.5182  0.0577  0.2591  0.0048 </r>
       </set>
       <set comment="band 5">
        <r>  0.0000  0.0051  0.0000  0.0102  0.0810  0.0783  0.0000  0.1566  0.6481 </r>
       </set>
       <set comment="band 6">
        <r>  0.4304  0.0268  0.2153  0.0134  0.0292  0.0480  0.1123  0.0240  0.0036 </r>
       </set>
       <set comment="band 7">
        <r>  0.0000  0.2505  0.0000  0.5010  0.0036  0.1226  0.0000  0.2452  0.0287 </r>
       </set>
       <set comment="band 8">
        <r>  0.2048  0.0386  0.3611  0.0193  0.1153  0.0121  0.2648  0.0061  0.0144 </r>
       </set>
       <set comment="band 9">
        <r>  0.0028  0.2760  0.0017  0.1380  0.3110  0.1559  0.0042  0.0780  0.0389 </r>
       </set>
       <set comment="band 10">
        <r>  0.0006  0.0504  0.0538  0.0252  0.1682  0.0146  0.2957  0.0073  0.0210 </r>
       </set>
       <set comment="band 11">
        <r>  0.0000  0.0020  0.0000  0.0039  0.0304  0.0584  0.0000  0.1169  0.2427 </r>
       </set>
       <set comment="band 12">
        <r>  0.0652  1.4471  2.8277  0.7365  0.0026  0.0000  0.1292  0.0000  0.0003 </r>
       </set>
      </set>
      <set comment="kpoint 172">
       <set comment="band 1">
        <r>  0.0232  0.0162  0.0491  0.0081  0.2407  0.0425  0.5821  0.0212  0.0301 </r>
       </set>
       <set comment="band 2">
        <r>  0.0201  0.1245  0.0115  0.0622  0.4119  0.0238  0.3485  0.0119  0.0515 </r>
       </set>
       <set comment="band 3">
        <r>  0.0000  0.0821  0.0000  0.1641  0.0636  0.0790  0.0000  0.1579  0.5091 </r>
       </set>
       <set comment="band 4">
        <r>  0.0553  0.0010  0.0212  0.0005  0.0868  0.5182  0.0037  0.2591  0.0108 </r>
       </set>
       <set comment="band 5">
        <r>  0.0000  0.0051  0.0000  0.0102  0.0261  0.2430  0.0000  0.4861  0.2089 </r>
       </set>
       <set comment="band 6">
        <r>  0.4304  0.1435  0.0403  0.0718  0.0354  0.0480  0.1053  0.0240  0.0044 </r>
       </set>
       <set comment="band 7">
        <r>  0.0000  0.2505  0.0000  0.5010  0.0409  0.0108  0.0000  0.0215  0.3269 </r>
       </set>
       <set comment="band 8">
        <r>  0.2048  0.2407  0.0579  0.1204  0.3481  0.0121  0.0030  0.0061  0.0435 </r>
       </set>
       <set comment="band 9">
        <r>  0.0028  0.0011  0.4140  0.0006  0.1102  0.1559  0.2301  0.0780  0.0138 </r>
       </set>
       <set comment="band 10">
        <r>  0.0006  0.0359  0.0756  0.0179  0.0571  0.0146  0.4207  0.0073  0.0071 </r>
       </set>
       <set comment="band 11">
        <r>  0.0000  0.0020  0.0000  0.0039  0.0195  0.0910  0.0000  0.1821  0.1558 </r>
       </set>
       <set comment="band 12">
        <r>  0.0620  1.9575  2.1516  0.9537  0.0709  0.0000  0.0508  0.0000  0.0088 </r>
       </set>
      </set>
     </set>
    </set>
   </array>
  </projected>
 </calculation>
 <structure name="finalpos" >
  <crystal>
   <varray name="basis" >
    <v>       2.20111500       0.00000400       1.27082700 </v>
    <v>       0.73371000       2.07522800       1.27082700 </v>
    <v>       0.00000600       0.00000400       2.54163400 </v>
   </varray>
   <i name="volume">     11.60968439 </i>
   <varray name="rec_basis" >
    <v>       0.45431596      -0.16062578      -0.00000082 </v>
    <v>      -0.00000044       0.48187538      -0.00000076 </v>
    <v>      -0.22715955      -0.16062606       0.39344847 </v>
   </varray>
  </crystal>
  <varray name="positions" >
   <v>       0.00000000       0.00000000       0.00000000 </v>
  </varray>
 </structure>
</modeling>
