 running on   16 total cores
 distrk:  each k-point on   16 cores,    1 groups
 distr:  one band on    4 cores,    4 groups
 vasp.6.2.0 18Jan21 (build Feb  1 2022 01:28:57) complex                         
 POSCAR found type information on POSCAR Pt
 POSCAR found :  1 types and       1 ions
 scaLAPACK will be used
 -----------------------------------------------------------------------------
|                                                                             |
|               ----> ADVICE to this user running VASP <----                  |
|                                                                             |
|     You enforced a specific xc type in the INCAR file but a different       |
|     type was found in the POTCAR file.                                      |
|     I HOPE YOU KNOW WHAT YOU ARE DOING!                                     |
|                                                                             |
 -----------------------------------------------------------------------------

 LDA part: xc-table for Pade appr. of Perdew
 POSCAR, INCAR and KPOINTS ok, starting setup
 FFT: planning ...
 WAVECAR not read
 entering main loop
       N       E                     dE             d eps       ncg     rms          rms(c)
DAV:   1     0.263968705468E+02    0.26397E+02   -0.40335E+03  7116   0.528E+02
DAV:   2    -0.540210204241E+01   -0.31799E+02   -0.30329E+02  7552   0.134E+02
DAV:   3    -0.575992690772E+01   -0.35782E+00   -0.35727E+00  7684   0.131E+01
DAV:   4    -0.576139537683E+01   -0.14685E-02   -0.14683E-02  7584   0.985E-01
DAV:   5    -0.576140705163E+01   -0.11675E-04   -0.11675E-04  7792   0.786E-02    0.126E+01
DAV:   6    -0.545341826540E+01    0.30799E+00   -0.61019E-01  6760   0.602E+00    0.678E+00
DAV:   7    -0.541298987729E+01    0.40428E-01   -0.14614E-01  7416   0.292E+00    0.241E+00
DAV:   8    -0.540996639640E+01    0.30235E-02   -0.64138E-03  6984   0.625E-01    0.623E-01
DAV:   9    -0.540972103766E+01    0.24536E-03   -0.15633E-04  7144   0.102E-01    0.762E-02
DAV:  10    -0.540972244737E+01   -0.14097E-05   -0.61393E-06  3472   0.201E-02
   1 F= -.54097224E+01 E0= -.54083113E+01  d E =-.282233E-02
