 vasp.6.2.0 18Jan21 (build Feb  1 2022 01:28:57) complex                         
 executed on             LinuxPGI date 2022.05.17  00:42:43
 running on   16 total cores
 distrk:  each k-point on   16 cores,    1 groups
 distr:  one band on NCORE=   4 cores,    4 groups


--------------------------------------------------------------------------------------------------------


 INCAR:
   ALGO = 38
   AMIN = 0.01
   AMIX = 0.2
   BMIX = 0.001
   EDIFF = 0.0001
   EDIFFG = -0.03
   ENCUT = 420
   GGA = RP
   IBRION = 2
   ISIF = 0
   ISMEAR = 0
   ISPIN = 1
   ISYM = 0
   LASPH = False
   LORBIT = 11
   LREAL = True
   LVTOT = False
   LWAVE = False
   NCORE = 4
   NELM = 80
   NELMIN = 4
   NSW = 300
   PREC = Normal
   SIGMA = 0.05
   SYMPREC = 1e-05

 POTCAR:    PAW_PBE Pt 04Feb2005                  
 POTCAR:    PAW_PBE Pt 04Feb2005                  
   SHA256 =  3ed90460adef76debcff1cfb73ee1349b515b1a3db03439735b44de3a8db7dc8 Pt/POTCAR             
   COPYR  = (c) Copyright 04Feb2005 Georg Kresse                                                    
   COPYR  = This file is part of the software VASP. Any use, copying, and all other rights are regul
   COPYR  = If you do not have a valid VASP license, you may not use, copy or distribute this file. 
   VRHFIN =Pt: s1d9                                                                                 
   LEXCH  = PE                                                                                      
   EATOM  =   729.1176 eV,   53.5886 Ry                                                             
                                                                                                    
   TITEL  = PAW_PBE Pt 04Feb2005                                                                    
   LULTRA =        F    use ultrasoft PP ?                                                          
   IUNSCR =        1    unscreen: 0-lin 1-nonlin 2-no                                               
   RPACOR =    2.330    partial core radius                                                         
   POMASS =  195.080; ZVAL   =   10.000    mass and valenz                                          
   RCORE  =    2.600    outmost cutoff radius                                                       
   RWIGS  =    2.750; RWIGS  =    1.455    wigner-seitz radius (au A)                               
   ENMAX  =  230.283; ENMIN  =  172.712 eV                                                          
   ICORE  =        3    local potential                                                             
   LCOR   =        T    correct aug charges                                                         
   LPAW   =        T    paw PP                                                                      
   EAUG   =  358.966                                                                                
   DEXC   =    0.000                                                                                
   RMAX   =    2.658    core radius for proj-oper                                                   
   RAUG   =    1.300    factor for augmentation sphere                                              
   RDEP   =    2.761    radius for radial grids                                                     
   RDEPT  =    2.203    core radius for aug-charge                                                  
                                                                                                    
   Atomic configuration                                                                             
   16 entries                                                                                       
     n  l   j            E        occ.                                                              
     1  0  0.50    -78401.1885   2.0000                                                             
     2  0  0.50    -13770.7750   2.0000                                                             
     2  1  1.50    -11931.0468   6.0000                                                             
     3  0  0.50     -3234.7234   2.0000                                                             
     3  1  1.50     -2699.2216   6.0000                                                             
     3  2  2.50     -2119.5714  10.0000                                                             
     4  0  0.50      -695.1528   2.0000                                                             
     4  1  1.50      -519.6034   6.0000                                                             
     4  2  2.50      -306.6786  10.0000                                                             
     4  3  3.50       -70.1041  14.0000                                                             
     5  0  0.50      -101.7747   2.0000                                                             
     5  1  1.50       -55.9873   6.0000                                                             
     5  2  2.50        -6.1423   9.0000                                                             
     6  0  0.50        -5.6573   1.0000                                                             
     6  1  1.50        -6.8029   0.0000                                                             
     5  3  2.50        -1.3606   0.0000                                                             
   Description                                                                                      
     l       E           TYP  RCUT    TYP  RCUT                                                     
     2     -6.1423404     23  2.500                                                                 
     2     -7.5029230     23  2.500                                                                 
     0     -5.6573207     23  2.500                                                                 
     0      0.7416693     23  2.500                                                                 
     1     -2.7211652     23  2.600                                                                 
     1     20.4087390     23  2.600                                                                 
     3     -1.3605826     23  2.500                                                                 
  local pseudopotential read in
  partial core-charges read in
  partial kinetic energy density read in
  atomic valenz-charges read in
  non local Contribution for L=            2  read in
    real space projection operators read in
  non local Contribution for L=            2  read in
    real space projection operators read in
  non local Contribution for L=            0  read in
    real space projection operators read in
  non local Contribution for L=            0  read in
    real space projection operators read in
  non local Contribution for L=            1  read in
    real space projection operators read in
  non local Contribution for L=            1  read in
    real space projection operators read in
    PAW grid and wavefunctions read in
 
   number of l-projection  operators is LMAX  =            6
   number of lm-projection operators is LMMAX =           18
 
 -----------------------------------------------------------------------------
|                                                                             |
|               ----> ADVICE to this user running VASP <----                  |
|                                                                             |
|     You have a (more or less) 'small supercell' and for smaller cells       |
|     it is recommended to use the reciprocal-space projection scheme!        |
|     The real-space optimization is not efficient for small cells and it     |
|     is also less accurate ...                                               |
|     Therefore, set LREAL=.FALSE. in the INCAR file.                         |
|                                                                             |
 -----------------------------------------------------------------------------

 -----------------------------------------------------------------------------
|                                                                             |
|           W    W    AA    RRRRR   N    N  II  N    N   GGGG   !!!           |
|           W    W   A  A   R    R  NN   N  II  NN   N  G    G  !!!           |
|           W    W  A    A  R    R  N N  N  II  N N  N  G       !!!           |
|           W WW W  AAAAAA  RRRRR   N  N N  II  N  N N  G  GGG   !            |
|           WW  WW  A    A  R   R   N   NN  II  N   NN  G    G                |
|           W    W  A    A  R    R  N    N  II  N    N   GGGG   !!!           |
|                                                                             |
|     The real-space projection scheme for the treatment of the non-local     |
|     pseudopotentials has been switched on but on file POTCAR I have not     |
|     found any entries, signalling me that you have never performed a        |
|     real-space optimization of all non-local projectors! BE WARNED that     |
|     a calculation using the real-space projection scheme together with      |
|     non-local projectors which were not real-space optimized (according     |
|     to the plane-wave cutoff used in this calculation) might give more      |
|     or less inaccurate results. I hope you know what you are doing.         |
|                                                                             |
 -----------------------------------------------------------------------------

 -----------------------------------------------------------------------------
|                                                                             |
|               ----> ADVICE to this user running VASP <----                  |
|                                                                             |
|     You enforced a specific xc type in the INCAR file but a different       |
|     type was found in the POTCAR file.                                      |
|     I HOPE YOU KNOW WHAT YOU ARE DOING!                                     |
|                                                                             |
 -----------------------------------------------------------------------------

  PAW_PBE Pt 04Feb2005                  :
 energy of atom  1       EATOM= -729.1176
 kinetic energy error for atom=    0.0052 (will be added to EATOM!!)
 
 
 POSCAR: Pt8
  positions in direct lattice
  No initial velocities read in
 exchange correlation table for  LEXCH =        9
   RHO(1)=    0.500       N(1)  =     2000
   RHO(2)=  100.500       N(2)  =     4000
 


--------------------------------------------------------------------------------------------------------


 ion  position               nearest neighbor table
   1  0.054  0.125  0.536-   7 2.82   5 2.82   6 2.82   3 2.82   3 2.82   4 2.82   4 2.82   2 2.82
                             2 2.82
   2  0.054  0.625  0.536-   8 2.82   6 2.82   5 2.82   4 2.82   4 2.82   3 2.82   3 2.82   1 2.82
                             1 2.82
   3  0.554  0.125  0.536-   5 2.82   7 2.82   8 2.82   1 2.82   1 2.82   2 2.82   2 2.82   4 2.82
                             4 2.82
   4  0.554  0.625  0.536-   6 2.82   8 2.82   7 2.82   2 2.82   2 2.82   1 2.82   1 2.82   3 2.82
                             3 2.82
   5  0.232  0.304  0.464-   3 2.82   1 2.82   2 2.82   7 2.82   7 2.82   8 2.82   8 2.82   6 2.82
                             6 2.82
   6  0.232  0.804  0.464-   4 2.82   2 2.82   1 2.82   8 2.82   8 2.82   7 2.82   7 2.82   5 2.82
                             5 2.82
   7  0.732  0.304  0.464-   1 2.82   3 2.82   4 2.82   5 2.82   5 2.82   6 2.82   6 2.82   8 2.82
                             8 2.82
   8  0.732  0.804  0.464-   2 2.82   4 2.82   3 2.82   6 2.82   6 2.82   5 2.82   5 2.82   7 2.82
                             7 2.82
 

IMPORTANT INFORMATION: All symmetrisations will be switched off!
NOSYMM: (Re-)initialisation of all symmetry stuff for point group C_1.


----------------------------------------------------------------------------------------

                                     Primitive cell                                     

  volume of cell :     886.6902

  direct lattice vectors                    reciprocal lattice vectors
     5.631812000  0.000000000  0.246262000     0.177562745 -0.102254797  0.000000000
     2.810522000  4.880397000  0.246262000     0.000000000  0.204901364  0.000000000
     0.000000000  0.000000000 32.260317000    -0.001355441 -0.000783562  0.030997836

  length of vectors
     5.637193573  5.637193784 32.260317000     0.204901371  0.204901364  0.031037348

  position of ions in fractional coordinates (direct lattice)
     0.053571000  0.125000000  0.535714000
     0.053571000  0.625000000  0.535714000
     0.553571000  0.125000000  0.535714000
     0.553571000  0.625000000  0.535714000
     0.232143000  0.303571000  0.464286000
     0.232143000  0.803571000  0.464286000
     0.732143000  0.303571000  0.464286000
     0.732143000  0.803571000  0.464286000

  ion indices of the primitive-cell ions
   primitive index   ion index
                 1           1
                 2           2
                 3           3
                 4           4
                 5           5
                 6           6
                 7           7
                 8           8

----------------------------------------------------------------------------------------

 
 
 KPOINTS: Automatic kpoint scheme                 

Automatic generation of k-mesh.
 Grid dimensions read from file:
 generate k-points for:    2    2    1

 Generating k-lattice:

  Cartesian coordinates                     Fractional coordinates (reciprocal lattice)
     0.088781373 -0.051127398  0.000000000     0.500000000  0.000000000  0.000000000
     0.000000000  0.102450682  0.000000000     0.000000000  0.500000000  0.000000000
    -0.001355441 -0.000783562  0.030997836     0.000000000  0.000000000  1.000000000

  Length of vectors
     0.102450686  0.102450682  0.031037348

  Shift w.r.t. Gamma in fractional coordinates (k-lattice)
     0.000000000  0.000000000  0.000000000

 
 Subroutine IBZKPT returns following result:
 ===========================================
 
 Found      4 irreducible k-points:
 
 Following reciprocal coordinates:
            Coordinates               Weight
  0.000000  0.000000  0.000000      1.000000
  0.500000  0.000000  0.000000      1.000000
  0.000000  0.500000  0.000000      1.000000
  0.500000  0.500000  0.000000      1.000000
 
 Following cartesian coordinates:
            Coordinates               Weight
  0.000000  0.000000  0.000000      1.000000
  0.088781 -0.051127  0.000000      1.000000
  0.000000  0.102451  0.000000      1.000000
  0.088781  0.051323  0.000000      1.000000
 


--------------------------------------------------------------------------------------------------------




 Dimension of arrays:
   k-points           NKPTS =      4   k-points in BZ     NKDIM =      4   number of bands    NBANDS=     48
   number of dos      NEDOS =    301   number of ions     NIONS =      8
   non local maximal  LDIM  =      6   non local SUM 2l+1 LMDIM =     18
   total plane-waves  NPLWV = 127008
   max r-space proj   IRMAX =   1720   max aug-charges    IRDMAX=   8874
   dimension x,y,z NGX =    28 NGY =   28 NGZ =  162
   dimension x,y,z NGXF=    56 NGYF=   56 NGZF=  324
   support grid    NGXF=    56 NGYF=   56 NGZF=  324
   ions per type =               8
   NGX,Y,Z   is equivalent  to a cutoff of   8.26,  8.26,  8.35 a.u.
   NGXF,Y,Z  is equivalent  to a cutoff of  16.51, 16.51, 16.70 a.u.

 SYSTEM =  unknown system                          
 POSCAR =  Pt8                                     

 Startparameter for this run:
   NWRITE =      2    write-flag & timer
   PREC   = normal    normal or accurate (medium, high low for compatibility)
   ISTART =      0    job   : 0-new  1-cont  2-samecut
   ICHARG =      2    charge: 1-file 2-atom 10-const
   ISPIN  =      1    spin polarized calculation?
   LNONCOLLINEAR =      F non collinear calculations
   LSORBIT =      F    spin-orbit coupling
   INIWAV =      1    electr: 0-lowe 1-rand  2-diag
   LASPH  =      F    aspherical Exc in radial PAW
   METAGGA=      F    non-selfconsistent MetaGGA calc.

 Electronic Relaxation 1
   ENCUT  =  420.0 eV  30.87 Ry    5.56 a.u.   9.42  9.42 53.91*2*pi/ulx,y,z
   ENINI  =  420.0     initial cutoff
   ENAUG  =  359.0 eV  augmentation charge cutoff
   NELM   =     80;   NELMIN=  4; NELMDL= -5     # of ELM steps 
   EDIFF  = 0.1E-03   stopping-criterion for ELM
   LREAL  =      T    real-space projection
   NLSPLINE    = F    spline interpolate recip. space projectors
   LCOMPAT=      F    compatible to vasp.4.4
   GGA_COMPAT  = T    GGA compatible to vasp.4.4-vasp.4.6
   LMAXPAW     = -100 max onsite density
   LMAXMIX     =    2 max onsite mixed and CHGCAR
   VOSKOWN=      0    Vosko Wilk Nusair interpolation
   ROPT   =    0.00000
 Ionic relaxation
   EDIFFG = -.3E-01   stopping-criterion for IOM
   NSW    =    300    number of steps for IOM
   NBLOCK =      1;   KBLOCK =    300    inner block; outer block 
   IBRION =      2    ionic relax: 0-MD 1-quasi-New 2-CG
   NFREE  =      1    steps in history (QN), initial steepest desc. (CG)
   ISIF   =      0    stress and relaxation
   IWAVPR =     11    prediction:  0-non 1-charg 2-wave 3-comb
   ISYM   =      0    0-nonsym 1-usesym 2-fastsym
   LCORR  =      T    Harris-Foulkes like correction to forces

   POTIM  = 0.5000    time-step for ionic-motion
   TEIN   =    0.0    initial temperature
   TEBEG  =    0.0;   TEEND  =   0.0 temperature during run
   SMASS  =  -3.00    Nose mass-parameter (am)
   estimated Nose-frequenzy (Omega)   =  0.10E-29 period in steps = 0.13E+47 mass=  -0.726E-27a.u.
   SCALEE = 1.0000    scale energy and forces
   NPACO  =    256;   APACO  = 16.0  distance and # of slots for P.C.
   PSTRESS=    0.0 pullay stress

  Mass of Ions in am
   POMASS = 195.08
  Ionic Valenz
   ZVAL   =  10.00
  Atomic Wigner-Seitz radii
   RWIGS  =  -1.00
  virtual crystal weights 
   VCA    =   1.00
   NELECT =      80.0000    total number of electrons
   NUPDOWN=      -1.0000    fix difference up-down

 DOS related values:
   EMIN   =  10.00;   EMAX   =-10.00  energy-range for DOS
   EFERMI =   0.00
   ISMEAR =     0;   SIGMA  =   0.05  broadening in eV -4-tet -1-fermi 0-gaus

 Electronic relaxation 2 (details)
   IALGO  =     38    algorithm
   LDIAG  =      T    sub-space diagonalisation (order eigenvalues)
   LSUBROT=      F    optimize rotation matrix (better conditioning)
   TURBO    =      0    0=normal 1=particle mesh
   IRESTART =      0    0=no restart 2=restart with 2 vectors
   NREBOOT  =      0    no. of reboots
   NMIN     =      0    reboot dimension
   EREF     =   0.00    reference energy to select bands
   IMIX   =      4    mixing-type and parameters
     AMIX     =   0.20;   BMIX     =  0.00
     AMIX_MAG =   0.80;   BMIX_MAG =  0.00
     AMIN     =   0.01
     WC   =   100.;   INIMIX=   1;  MIXPRE=   1;  MAXMIX= -45

 Intra band minimization:
   WEIMIN = 0.0010     energy-eigenvalue tresh-hold
   EBREAK =  0.52E-06  absolut break condition
   DEPER  =   0.30     relativ break condition  

   TIME   =   0.40     timestep for ELM

  volume/ion in A,a.u.               =     110.84       747.96
  Fermi-wavevector in a.u.,A,eV,Ry     =   0.734256  1.387543  7.335335  0.539132
  Thomas-Fermi vector in A             =   1.827165
 
 Write flags
   LWAVE        =      F    write WAVECAR
   LDOWNSAMPLE  =      F    k-point downsampling of WAVECAR
   LCHARG       =      T    write CHGCAR
   LVTOT        =      F    write LOCPOT, total local potential
   LVHAR        =      F    write LOCPOT, Hartree potential only
   LELF         =      F    write electronic localiz. function (ELF)
   LORBIT       =     11    0 simple, 1 ext, 2 COOP (PROOUT), +10 PAW based schemes


 Dipole corrections
   LMONO  =      F    monopole corrections only (constant potential shift)
   LDIPOL =      F    correct potential (dipole corrections)
   IDIPOL =      0    1-x, 2-y, 3-z, 4-all directions 
   EPSILON=  1.0000000 bulk dielectric constant

 Exchange correlation treatment:
   GGA     =    RP    GGA type
   LEXCH   =     9    internal setting for exchange type
   VOSKOWN=      0    Vosko Wilk Nusair interpolation
   LHFCALC =     F    Hartree Fock is set to
   LHFONE  =     F    Hartree Fock one center treatment
   AEXX    =    0.0000 exact exchange contribution

 Linear response parameters
   LEPSILON=     F    determine dielectric tensor
   LRPA    =     F    only Hartree local field effects (RPA)
   LNABLA  =     F    use nabla operator in PAW spheres
   LVEL    =     F    velocity operator in full k-point grid
   LINTERFAST=   F  fast interpolation
   KINTER  =     0    interpolate to denser k-point grid
   CSHIFT  =0.1000    complex shift for real part using Kramers Kronig
   OMEGAMAX=  -1.0    maximum frequency
   DEG_THRESHOLD= 0.2000000E-02 threshold for treating states as degnerate
   RTIME   =   -0.100 relaxation time in fs
  (WPLASMAI=    0.000 imaginary part of plasma frequency in eV, 0.658/RTIME)
   DFIELD  = 0.0000000 0.0000000 0.0000000 field for delta impulse in time
 
 Orbital magnetization related:
   ORBITALMAG=     F  switch on orbital magnetization
   LCHIMAG   =     F  perturbation theory with respect to B field
   DQ        =  0.001000  dq finite difference perturbation B field
   LLRAUG    =     F  two centre corrections for induced B field



--------------------------------------------------------------------------------------------------------


 conjugate gradient relaxation of ions
   using selective dynamics as specified on POSCAR
 charge density and potential will be updated during run
 non-spin polarized calculation
 Variant of blocked Davidson
 Davidson routine will perform the subspace rotation
 perform sub-space diagonalisation
    after iterative eigenvector-optimisation
 modified Broyden-mixing scheme, WC =      100.0
 initial mixing is a Kerker type mixing with AMIX =  0.2000 and BMIX =      0.0010
 Hartree-type preconditioning will be used
 using additional bands             8
 real space projection scheme for non local part
 use partial core corrections
 calculate Harris-corrections to forces 
   (improved forces if not selfconsistent)
 use gradient corrections 
 use of overlap-Matrix (Vanderbilt PP)
 Gauss-broadening in eV      SIGMA  =   0.05


--------------------------------------------------------------------------------------------------------


  energy-cutoff  :      420.00
  volume of cell :      886.69
      direct lattice vectors                 reciprocal lattice vectors
     5.631812000  0.000000000  0.246262000     0.177562745 -0.102254797  0.000000000
     2.810522000  4.880397000  0.246262000     0.000000000  0.204901364  0.000000000
     0.000000000  0.000000000 32.260317000    -0.001355441 -0.000783562  0.030997836

  length of vectors
     5.637193573  5.637193784 32.260317000     0.204901371  0.204901364  0.031037348


 
 k-points in units of 2pi/SCALE and weight: Automatic kpoint scheme                 
   0.00000000  0.00000000  0.00000000       0.250
   0.08878137 -0.05112740  0.00000000       0.250
   0.00000000  0.10245068  0.00000000       0.250
   0.08878137  0.05132328  0.00000000       0.250
 
 k-points in reciprocal lattice and weights: Automatic kpoint scheme                 
   0.00000000  0.00000000  0.00000000       0.250
   0.50000000  0.00000000  0.00000000       0.250
   0.00000000  0.50000000  0.00000000       0.250
   0.50000000  0.50000000  0.00000000       0.250
 
 position of ions in fractional coordinates (direct lattice) 
   0.05357100  0.12500000  0.53571400
   0.05357100  0.62500000  0.53571400
   0.55357100  0.12500000  0.53571400
   0.55357100  0.62500000  0.53571400
   0.23214300  0.30357100  0.46428600
   0.23214300  0.80357100  0.46428600
   0.73214300  0.30357100  0.46428600
   0.73214300  0.80357100  0.46428600
 
 position of ions in cartesian coordinates  (Angst):
   0.65301705  0.61004963 17.32627871
   2.05827805  3.05024813 17.44940971
   3.46892305  0.61004963 17.44940971
   4.87418405  3.05024813 17.57254071
   2.16057871  1.48154700 15.10993954
   3.56583971  3.92174550 15.23307054
   4.97648471  1.48154700 15.23307054
   6.38174571  3.92174550 15.35620154
 


--------------------------------------------------------------------------------------------------------


 k-point   1 :   0.0000 0.0000 0.0000  plane waves:   17363
 k-point   2 :   0.5000 0.0000 0.0000  plane waves:   17306
 k-point   3 :   0.0000 0.5000 0.0000  plane waves:   17306
 k-point   4 :   0.5000 0.5000 0.0000  plane waves:   17332

 maximum and minimum number of plane-waves per node :      4354     4296

 maximum number of plane-waves:     17363
 maximum index in each direction: 
   IXMAX=    9   IYMAX=    9   IZMAX=   53
   IXMIN=   -9   IYMIN=   -9   IZMIN=  -53


 real space projection operators:
  total allocation   :       1825.88 KBytes
  max/ min on nodes  :        458.44        454.50


 parallel 3D FFT for wavefunctions:
    minimum data exchange during FFTs selected (reduces bandwidth)
 parallel 3D FFT for charge:
    minimum data exchange during FFTs selected (reduces bandwidth)


 total amount of memory used by VASP MPI-rank0    42313. kBytes
=======================================================================

   base      :      30000. kBytes
   nonlr-proj:        791. kBytes
   fftplans  :       3347. kBytes
   grid      :       4771. kBytes
   one-center:         31. kBytes
   wavefun   :       3373. kBytes
 
     INWAV:  cpu time    0.0000: real time    0.0000
 Broyden mixing: mesh for mixing (old mesh)
   NGX = 19   NGY = 19   NGZ =107
  (NGX  = 56   NGY  = 56   NGZ  =324)
  gives a total of  38627 points

 initial charge density was supplied:
 charge density of overlapping atoms calculated
 number of electron      80.0000000 magnetization 
 keeping initial charge density in first step


--------------------------------------------------------------------------------------------------------


 Maximum index for non-local projection operator           417
 Maximum index for augmentation-charges           663 (set IRDMAX)


--------------------------------------------------------------------------------------------------------


 First call to EWALD:  gamma=   0.184
 Maximum number of real-space cells 5x 5x 1
 Maximum number of reciprocal cells 2x 2x 8

    FEWALD:  cpu time    0.0014: real time    0.0014


--------------------------------------- Iteration      1(   1)  ---------------------------------------


    POTLOK:  cpu time    0.0985: real time    0.1028
    SETDIJ:  cpu time    0.0063: real time    0.0063
     EDDAV:  cpu time    0.7475: real time    0.7545
       DOS:  cpu time    0.0007: real time    0.0007
    --------------------------------------------
      LOOP:  cpu time    0.8531: real time    0.8643

 eigenvalue-minimisations  :   384
 total energy-change (2. order) : 0.5984096E+03  (-0.2383956E+04)
 number of electron      80.0000000 magnetization 
 augmentation part       80.0000000 magnetization 

 Free energy of the ion-electron system (eV)
  ---------------------------------------------------
  alpha Z        PSCENC =        68.61166137
  Ewald energy   TEWEN  =     36625.54051160
  -Hartree energ DENC   =    -42379.57625188
  -exchange      EXHF   =         0.00000000
  -V(xc)+E(xc)   XCENC  =        21.28288539
  PAW double counting   =      5573.64760339    -5339.66618410
  entropy T*S    EENTRO =        -0.01506591
  eigenvalues    EBANDS =       202.03076160
  atomic energy  EATOM  =      5826.55367459
  Solvation  Ediel_sol  =         0.00000000
  ---------------------------------------------------
  free energy    TOTEN  =       598.40959604 eV

  energy without entropy =      598.42466195  energy(sigma->0) =      598.41712900


--------------------------------------------------------------------------------------------------------




--------------------------------------- Iteration      1(   2)  ---------------------------------------


     EDDAV:  cpu time    0.9929: real time    0.9974
       DOS:  cpu time    0.0006: real time    0.0006
    --------------------------------------------
      LOOP:  cpu time    0.9935: real time    0.9980

 eigenvalue-minimisations  :   584
 total energy-change (2. order) :-0.5562537E+03  (-0.5195727E+03)
 number of electron      80.0000000 magnetization 
 augmentation part       80.0000000 magnetization 

 Free energy of the ion-electron system (eV)
  ---------------------------------------------------
  alpha Z        PSCENC =        68.61166137
  Ewald energy   TEWEN  =     36625.54051160
  -Hartree energ DENC   =    -42379.57625188
  -exchange      EXHF   =         0.00000000
  -V(xc)+E(xc)   XCENC  =        21.28288539
  PAW double counting   =      5573.64760339    -5339.66618410
  entropy T*S    EENTRO =        -0.01405411
  eigenvalues    EBANDS =      -354.22396877
  atomic energy  EATOM  =      5826.55367459
  Solvation  Ediel_sol  =         0.00000000
  ---------------------------------------------------
  free energy    TOTEN  =        42.15587747 eV

  energy without entropy =       42.16993158  energy(sigma->0) =       42.16290453


--------------------------------------------------------------------------------------------------------




--------------------------------------- Iteration      1(   3)  ---------------------------------------


     EDDAV:  cpu time    0.8391: real time    0.8432
       DOS:  cpu time    0.0007: real time    0.0007
    --------------------------------------------
      LOOP:  cpu time    0.8398: real time    0.8439

 eigenvalue-minimisations  :   464
 total energy-change (2. order) :-0.8077202E+02  (-0.7626009E+02)
 number of electron      80.0000000 magnetization 
 augmentation part       80.0000000 magnetization 

 Free energy of the ion-electron system (eV)
  ---------------------------------------------------
  alpha Z        PSCENC =        68.61166137
  Ewald energy   TEWEN  =     36625.54051160
  -Hartree energ DENC   =    -42379.57625188
  -exchange      EXHF   =         0.00000000
  -V(xc)+E(xc)   XCENC  =        21.28288539
  PAW double counting   =      5573.64760339    -5339.66618410
  entropy T*S    EENTRO =        -0.03469950
  eigenvalues    EBANDS =      -434.97534357
  atomic energy  EATOM  =      5826.55367459
  Solvation  Ediel_sol  =         0.00000000
  ---------------------------------------------------
  free energy    TOTEN  =       -38.61614272 eV

  energy without entropy =      -38.58144322  energy(sigma->0) =      -38.59879297


--------------------------------------------------------------------------------------------------------




--------------------------------------- Iteration      1(   4)  ---------------------------------------


     EDDAV:  cpu time    0.9543: real time    0.9612
       DOS:  cpu time    0.0007: real time    0.0007
    --------------------------------------------
      LOOP:  cpu time    0.9550: real time    0.9619

 eigenvalue-minimisations  :   560
 total energy-change (2. order) :-0.3713674E+01  (-0.3325863E+01)
 number of electron      80.0000000 magnetization 
 augmentation part       80.0000000 magnetization 

 Free energy of the ion-electron system (eV)
  ---------------------------------------------------
  alpha Z        PSCENC =        68.61166137
  Ewald energy   TEWEN  =     36625.54051160
  -Hartree energ DENC   =    -42379.57625188
  -exchange      EXHF   =         0.00000000
  -V(xc)+E(xc)   XCENC  =        21.28288539
  PAW double counting   =      5573.64760339    -5339.66618410
  entropy T*S    EENTRO =        -0.03861996
  eigenvalues    EBANDS =      -438.68509731
  atomic energy  EATOM  =      5826.55367459
  Solvation  Ediel_sol  =         0.00000000
  ---------------------------------------------------
  free energy    TOTEN  =       -42.32981691 eV

  energy without entropy =      -42.29119695  energy(sigma->0) =      -42.31050693


--------------------------------------------------------------------------------------------------------




--------------------------------------- Iteration      1(   5)  ---------------------------------------


     EDDAV:  cpu time    0.8905: real time    0.8926
       DOS:  cpu time    0.0006: real time    0.0006
    CHARGE:  cpu time    0.0599: real time    0.0623
    MIXING:  cpu time    0.0022: real time    0.0022
    --------------------------------------------
      LOOP:  cpu time    0.9533: real time    0.9578

 eigenvalue-minimisations  :   520
 total energy-change (2. order) :-0.1164260E+00  (-0.1091150E+00)
 number of electron      79.9999883 magnetization 
 augmentation part       24.0096870 magnetization 

 Broyden mixing:
  rms(total) = 0.22702E+01    rms(broyden)= 0.22702E+01
  rms(prec ) = 0.22833E+01
  weight for this iteration     100.00

 Free energy of the ion-electron system (eV)
  ---------------------------------------------------
  alpha Z        PSCENC =        68.61166137
  Ewald energy   TEWEN  =     36625.54051160
  -Hartree energ DENC   =    -42379.57625188
  -exchange      EXHF   =         0.00000000
  -V(xc)+E(xc)   XCENC  =        21.28288539
  PAW double counting   =      5573.64760339    -5339.66618410
  entropy T*S    EENTRO =        -0.03862180
  eigenvalues    EBANDS =      -438.80152152
  atomic energy  EATOM  =      5826.55367459
  Solvation  Ediel_sol  =         0.00000000
  ---------------------------------------------------
  free energy    TOTEN  =       -42.44624296 eV

  energy without entropy =      -42.40762116  energy(sigma->0) =      -42.42693206


--------------------------------------------------------------------------------------------------------




--------------------------------------- Iteration      1(   6)  ---------------------------------------


    POTLOK:  cpu time    0.0915: real time    0.0919
    SETDIJ:  cpu time    0.0083: real time    0.0083
     EDDAV:  cpu time    0.8259: real time    0.8273
       DOS:  cpu time    0.0007: real time    0.0007
    CHARGE:  cpu time    0.0565: real time    0.0641
    MIXING:  cpu time    0.0051: real time    0.0052
    --------------------------------------------
      LOOP:  cpu time    0.9880: real time    0.9976

 eigenvalue-minimisations  :   456
 total energy-change (2. order) : 0.1352092E+01  (-0.1737705E+00)
 number of electron      79.9999879 magnetization 
 augmentation part       24.5138561 magnetization 

 Broyden mixing:
  rms(total) = 0.17042E+01    rms(broyden)= 0.17042E+01
  rms(prec ) = 0.17104E+01
  weight for this iteration     100.00

 eigenvalues of (default mixing * dielectric matrix)
  average eigenvalue GAMMA=   3.5194
  3.5194

 Free energy of the ion-electron system (eV)
  ---------------------------------------------------
  alpha Z        PSCENC =        68.61166137
  Ewald energy   TEWEN  =     36625.54051160
  -Hartree energ DENC   =    -42355.26691080
  -exchange      EXHF   =         0.00000000
  -V(xc)+E(xc)   XCENC  =        20.40844926
  PAW double counting   =      5798.41047645    -5568.82258742
  entropy T*S    EENTRO =        -0.03857286
  eigenvalues    EBANDS =      -456.49085294
  atomic energy  EATOM  =      5826.55367459
  Solvation  Ediel_sol  =         0.00000000
  ---------------------------------------------------
  free energy    TOTEN  =       -41.09415076 eV

  energy without entropy =      -41.05557789  energy(sigma->0) =      -41.07486432


--------------------------------------------------------------------------------------------------------




--------------------------------------- Iteration      1(   7)  ---------------------------------------


    POTLOK:  cpu time    0.0877: real time    0.0881
    SETDIJ:  cpu time    0.0050: real time    0.0050
     EDDAV:  cpu time    0.7897: real time    0.7916
       DOS:  cpu time    0.0007: real time    0.0007
    CHARGE:  cpu time    0.0586: real time    0.0587
    MIXING:  cpu time    0.0024: real time    0.0024
    --------------------------------------------
      LOOP:  cpu time    0.9441: real time    0.9465

 eigenvalue-minimisations  :   432
 total energy-change (2. order) : 0.4581915E+00  (-0.6219865E+00)
 number of electron      79.9999873 magnetization 
 augmentation part       25.5076797 magnetization 

 Broyden mixing:
  rms(total) = 0.69540E+00    rms(broyden)= 0.69539E+00
  rms(prec ) = 0.69846E+00
  weight for this iteration     100.00

 eigenvalues of (default mixing * dielectric matrix)
  average eigenvalue GAMMA=   5.1900
  2.0516  8.3284

 Free energy of the ion-electron system (eV)
  ---------------------------------------------------
  alpha Z        PSCENC =        68.61166137
  Ewald energy   TEWEN  =     36625.54051160
  -Hartree energ DENC   =    -42311.76216990
  -exchange      EXHF   =         0.00000000
  -V(xc)+E(xc)   XCENC  =        18.85086016
  PAW double counting   =      6452.55614518    -6233.24520120
  entropy T*S    EENTRO =        -0.03852904
  eigenvalues    EBANDS =      -487.70291203
  atomic energy  EATOM  =      5826.55367459
  Solvation  Ediel_sol  =         0.00000000
  ---------------------------------------------------
  free energy    TOTEN  =       -40.63595927 eV

  energy without entropy =      -40.59743023  energy(sigma->0) =      -40.61669475


--------------------------------------------------------------------------------------------------------




--------------------------------------- Iteration      1(   8)  ---------------------------------------


    POTLOK:  cpu time    0.0859: real time    0.0887
    SETDIJ:  cpu time    0.0052: real time    0.0052
     EDDAV:  cpu time    0.7793: real time    0.7808
       DOS:  cpu time    0.0007: real time    0.0007
    CHARGE:  cpu time    0.0595: real time    0.0595
    MIXING:  cpu time    0.0025: real time    0.0026
    --------------------------------------------
      LOOP:  cpu time    0.9331: real time    0.9375

 eigenvalue-minimisations  :   432
 total energy-change (2. order) : 0.1100963E+00  (-0.7662353E-01)
 number of electron      79.9999875 magnetization 
 augmentation part       25.2597780 magnetization 

 Broyden mixing:
  rms(total) = 0.68588E+00    rms(broyden)= 0.68587E+00
  rms(prec ) = 0.68920E+00
  weight for this iteration     100.00

 eigenvalues of (default mixing * dielectric matrix)
  average eigenvalue GAMMA=   2.7407
  5.1652  0.9068  2.1503

 Free energy of the ion-electron system (eV)
  ---------------------------------------------------
  alpha Z        PSCENC =        68.61166137
  Ewald energy   TEWEN  =     36625.54051160
  -Hartree energ DENC   =    -42345.92506663
  -exchange      EXHF   =         0.00000000
  -V(xc)+E(xc)   XCENC  =        19.33511352
  PAW double counting   =      7158.95172429    -6945.87406938
  entropy T*S    EENTRO =        -0.03363650
  eigenvalues    EBANDS =      -447.68577587
  atomic energy  EATOM  =      5826.55367459
  Solvation  Ediel_sol  =         0.00000000
  ---------------------------------------------------
  free energy    TOTEN  =       -40.52586301 eV

  energy without entropy =      -40.49222651  energy(sigma->0) =      -40.50904476


--------------------------------------------------------------------------------------------------------




--------------------------------------- Iteration      1(   9)  ---------------------------------------


    POTLOK:  cpu time    0.0903: real time    0.0932
    SETDIJ:  cpu time    0.0051: real time    0.0051
     EDDAV:  cpu time    0.7822: real time    0.7840
       DOS:  cpu time    0.0007: real time    0.0007
    CHARGE:  cpu time    0.0583: real time    0.0584
    MIXING:  cpu time    0.0026: real time    0.0026
    --------------------------------------------
      LOOP:  cpu time    0.9392: real time    0.9439

 eigenvalue-minimisations  :   432
 total energy-change (2. order) : 0.5208607E-01  (-0.5793495E-01)
 number of electron      79.9999875 magnetization 
 augmentation part       25.1659584 magnetization 

 Broyden mixing:
  rms(total) = 0.15601E+00    rms(broyden)= 0.15594E+00
  rms(prec ) = 0.16616E+00
  weight for this iteration     100.00

 eigenvalues of (default mixing * dielectric matrix)
  average eigenvalue GAMMA=   2.0722
  4.6705  2.1548  1.1045  0.3589

 Free energy of the ion-electron system (eV)
  ---------------------------------------------------
  alpha Z        PSCENC =        68.61166137
  Ewald energy   TEWEN  =     36625.54051160
  -Hartree energ DENC   =    -42341.89265697
  -exchange      EXHF   =         0.00000000
  -V(xc)+E(xc)   XCENC  =        19.42747749
  PAW double counting   =      6790.85746275    -6573.80703922
  entropy T*S    EENTRO =        -0.03281747
  eigenvalues    EBANDS =      -455.73205108
  atomic energy  EATOM  =      5826.55367459
  Solvation  Ediel_sol  =         0.00000000
  ---------------------------------------------------
  free energy    TOTEN  =       -40.47377694 eV

  energy without entropy =      -40.44095947  energy(sigma->0) =      -40.45736821


--------------------------------------------------------------------------------------------------------




--------------------------------------- Iteration      1(  10)  ---------------------------------------


    POTLOK:  cpu time    0.0899: real time    0.0902
    SETDIJ:  cpu time    0.0051: real time    0.0051
     EDDAV:  cpu time    0.7784: real time    0.7827
       DOS:  cpu time    0.0007: real time    0.0007
    CHARGE:  cpu time    0.0587: real time    0.0588
    MIXING:  cpu time    0.0027: real time    0.0027
    --------------------------------------------
      LOOP:  cpu time    0.9356: real time    0.9402

 eigenvalue-minimisations  :   432
 total energy-change (2. order) : 0.2910961E-01  (-0.1224951E-01)
 number of electron      79.9999875 magnetization 
 augmentation part       25.1555658 magnetization 

 Broyden mixing:
  rms(total) = 0.35863E-01    rms(broyden)= 0.35799E-01
  rms(prec ) = 0.36191E-01
  weight for this iteration     100.00

 eigenvalues of (default mixing * dielectric matrix)
  average eigenvalue GAMMA=   1.8469
  4.6937  2.1572  1.2489  0.8059  0.3288

 Free energy of the ion-electron system (eV)
  ---------------------------------------------------
  alpha Z        PSCENC =        68.61166137
  Ewald energy   TEWEN  =     36625.54051160
  -Hartree energ DENC   =    -42340.68252804
  -exchange      EXHF   =         0.00000000
  -V(xc)+E(xc)   XCENC  =        19.42512990
  PAW double counting   =      6745.70077878    -6528.16563854
  entropy T*S    EENTRO =        -0.03833254
  eigenvalues    EBANDS =      -457.38992446
  atomic energy  EATOM  =      5826.55367459
  Solvation  Ediel_sol  =         0.00000000
  ---------------------------------------------------
  free energy    TOTEN  =       -40.44466733 eV

  energy without entropy =      -40.40633479  energy(sigma->0) =      -40.42550106


--------------------------------------------------------------------------------------------------------




--------------------------------------- Iteration      1(  11)  ---------------------------------------


    POTLOK:  cpu time    0.0912: real time    0.0914
    SETDIJ:  cpu time    0.0051: real time    0.0051
     EDDAV:  cpu time    0.7943: real time    0.7989
       DOS:  cpu time    0.0008: real time    0.0008
    CHARGE:  cpu time    0.0616: real time    0.0616
    MIXING:  cpu time    0.0030: real time    0.0030
    --------------------------------------------
      LOOP:  cpu time    0.9559: real time    0.9607

 eigenvalue-minimisations  :   432
 total energy-change (2. order) : 0.4633839E-03  (-0.1286152E-02)
 number of electron      79.9999875 magnetization 
 augmentation part       25.1511488 magnetization 

 Broyden mixing:
  rms(total) = 0.29729E-01    rms(broyden)= 0.29725E-01
  rms(prec ) = 0.30786E-01
  weight for this iteration     100.00

 eigenvalues of (default mixing * dielectric matrix)
  average eigenvalue GAMMA=   1.7254
  4.7371  2.1138  1.8024  0.9724  0.4236  0.3032

 Free energy of the ion-electron system (eV)
  ---------------------------------------------------
  alpha Z        PSCENC =        68.61166137
  Ewald energy   TEWEN  =     36625.54051160
  -Hartree energ DENC   =    -42340.48724115
  -exchange      EXHF   =         0.00000000
  -V(xc)+E(xc)   XCENC  =        19.42172708
  PAW double counting   =      6752.32937781    -6534.82663944
  entropy T*S    EENTRO =        -0.03846913
  eigenvalues    EBANDS =      -457.54880668
  atomic energy  EATOM  =      5826.55367459
  Solvation  Ediel_sol  =         0.00000000
  ---------------------------------------------------
  free energy    TOTEN  =       -40.44420395 eV

  energy without entropy =      -40.40573482  energy(sigma->0) =      -40.42496938


--------------------------------------------------------------------------------------------------------




--------------------------------------- Iteration      1(  12)  ---------------------------------------


    POTLOK:  cpu time    0.0896: real time    0.0899
    SETDIJ:  cpu time    0.0051: real time    0.0051
     EDDAV:  cpu time    0.7817: real time    0.7870
       DOS:  cpu time    0.0007: real time    0.0007
    CHARGE:  cpu time    0.0602: real time    0.0603
    MIXING:  cpu time    0.0028: real time    0.0028
    --------------------------------------------
      LOOP:  cpu time    0.9401: real time    0.9458

 eigenvalue-minimisations  :   432
 total energy-change (2. order) : 0.3968910E-03  (-0.4826899E-03)
 number of electron      79.9999875 magnetization 
 augmentation part       25.1524533 magnetization 

 Broyden mixing:
  rms(total) = 0.18903E-01    rms(broyden)= 0.18899E-01
  rms(prec ) = 0.19449E-01
  weight for this iteration     100.00

 eigenvalues of (default mixing * dielectric matrix)
  average eigenvalue GAMMA=   1.8238
  4.9247  3.2948  2.1947  1.0432  0.6668  0.3577  0.2847

 Free energy of the ion-electron system (eV)
  ---------------------------------------------------
  alpha Z        PSCENC =        68.61166137
  Ewald energy   TEWEN  =     36625.54051160
  -Hartree energ DENC   =    -42340.30018190
  -exchange      EXHF   =         0.00000000
  -V(xc)+E(xc)   XCENC  =        19.41652896
  PAW double counting   =      6759.22346014    -6541.76364861
  entropy T*S    EENTRO =        -0.03855647
  eigenvalues    EBANDS =      -457.68725673
  atomic energy  EATOM  =      5826.55367459
  Solvation  Ediel_sol  =         0.00000000
  ---------------------------------------------------
  free energy    TOTEN  =       -40.44380706 eV

  energy without entropy =      -40.40525059  energy(sigma->0) =      -40.42452882


--------------------------------------------------------------------------------------------------------




--------------------------------------- Iteration      1(  13)  ---------------------------------------


    POTLOK:  cpu time    0.0907: real time    0.0910
    SETDIJ:  cpu time    0.0050: real time    0.0050
     EDDAV:  cpu time    0.7652: real time    0.7697
       DOS:  cpu time    0.0006: real time    0.0006
    CHARGE:  cpu time    0.0627: real time    0.0628
    MIXING:  cpu time    0.0030: real time    0.0030
    --------------------------------------------
      LOOP:  cpu time    0.9271: real time    0.9321

 eigenvalue-minimisations  :   416
 total energy-change (2. order) : 0.1212701E-03  (-0.1111755E-03)
 number of electron      79.9999875 magnetization 
 augmentation part       25.1548488 magnetization 

 Broyden mixing:
  rms(total) = 0.66995E-02    rms(broyden)= 0.66983E-02
  rms(prec ) = 0.68396E-02
  weight for this iteration     100.00

 eigenvalues of (default mixing * dielectric matrix)
  average eigenvalue GAMMA=   1.7892
  4.9813  3.9598  2.1652  1.0834  0.8855  0.5937  0.3624  0.2827

 Free energy of the ion-electron system (eV)
  ---------------------------------------------------
  alpha Z        PSCENC =        68.61166137
  Ewald energy   TEWEN  =     36625.54051160
  -Hartree energ DENC   =    -42339.98437927
  -exchange      EXHF   =         0.00000000
  -V(xc)+E(xc)   XCENC  =        19.40714987
  PAW double counting   =      6772.03180615    -6554.64850281
  entropy T*S    EENTRO =        -0.03856770
  eigenvalues    EBANDS =      -457.91703959
  atomic energy  EATOM  =      5826.55367459
  Solvation  Ediel_sol  =         0.00000000
  ---------------------------------------------------
  free energy    TOTEN  =       -40.44368579 eV

  energy without entropy =      -40.40511808  energy(sigma->0) =      -40.42440194


--------------------------------------------------------------------------------------------------------




--------------------------------------- Iteration      1(  14)  ---------------------------------------


    POTLOK:  cpu time    0.0923: real time    0.0926
    SETDIJ:  cpu time    0.0051: real time    0.0051
     EDDAV:  cpu time    0.4718: real time    0.4754
       DOS:  cpu time    0.0007: real time    0.0007
    --------------------------------------------
      LOOP:  cpu time    0.5699: real time    0.5738

 eigenvalue-minimisations  :   200
 total energy-change (2. order) : 0.1525783E-05  (-0.1865041E-04)
 number of electron      79.9999875 magnetization 
 augmentation part       25.1548488 magnetization 

 Free energy of the ion-electron system (eV)
  ---------------------------------------------------
  alpha Z        PSCENC =        68.61166137
  Ewald energy   TEWEN  =     36625.54051160
  -Hartree energ DENC   =    -42339.91836858
  -exchange      EXHF   =         0.00000000
  -V(xc)+E(xc)   XCENC  =        19.40626647
  PAW double counting   =      6775.23348772    -6557.85428102
  entropy T*S    EENTRO =        -0.03857051
  eigenvalues    EBANDS =      -457.97806590
  atomic energy  EATOM  =      5826.55367459
  Solvation  Ediel_sol  =         0.00000000
  ---------------------------------------------------
  free energy    TOTEN  =       -40.44368426 eV

  energy without entropy =      -40.40511375  energy(sigma->0) =      -40.42439900


--------------------------------------------------------------------------------------------------------




 average (electrostatic) potential at core
  the test charge radii are     1.2059
  (the norm of the test charge is              1.0000)
       1 -76.5519       2 -76.5502       3 -76.5517       4 -76.5516       5 -76.5545
       6 -76.5546       7 -76.5544       8 -76.5526
 
 
 
 E-fermi :  -2.8823     XC(G=0):  -2.4552     alpha+bet : -2.2606

 Fermi energy:        -2.8822606295

 k-point     1 :       0.0000    0.0000    0.0000
  band No.  band energies     occupation 
      1     -11.0101      2.00000
      2      -9.3934      2.00000
      3      -8.5978      2.00000
      4      -8.5977      2.00000
      5      -8.5975      2.00000
      6      -8.5343      2.00000
      7      -8.5342      2.00000
      8      -8.5330      2.00000
      9      -7.7052      2.00000
     10      -7.7048      2.00000
     11      -7.7047      2.00000
     12      -6.3265      2.00000
     13      -6.3262      2.00000
     14      -6.3260      2.00000
     15      -6.0486      2.00000
     16      -5.9770      2.00000
     17      -5.9745      2.00000
     18      -5.8030      2.00000
     19      -5.8006      2.00000
     20      -5.1153      2.00000
     21      -5.1149      2.00000
     22      -5.1148      2.00000
     23      -4.3113      2.00000
     24      -4.2607      2.00000
     25      -4.2595      2.00000
     26      -4.2594      2.00000
     27      -3.9554      2.00000
     28      -3.9552      2.00000
     29      -3.7327      2.00000
     30      -3.7322      2.00000
     31      -3.7320      2.00000
     32      -3.2570      2.00000
     33      -3.2567      2.00000
     34      -3.2561      2.00000
     35      -3.0281      1.99996
     36      -3.0275      1.99996
     37      -2.6167      0.00000
     38      -2.6147      0.00000
     39      -2.6146      0.00000
     40      -2.4687      0.00000
     41      -2.4667      0.00000
     42      -2.4667      0.00000
     43      -1.8962      0.00000
     44      -1.2367      0.00000
     45      -1.2324      0.00000
     46      -1.2323      0.00000
     47      -0.0169      0.00000
     48      -0.0129      0.00000

 k-point     2 :       0.5000    0.0000    0.0000
  band No.  band energies     occupation 
      1      -9.2923      2.00000
      2      -9.2922      2.00000
      3      -8.0401      2.00000
      4      -8.0400      2.00000
      5      -7.7088      2.00000
      6      -7.7087      2.00000
      7      -7.2468      2.00000
      8      -7.2466      2.00000
      9      -7.1807      2.00000
     10      -7.1806      2.00000
     11      -6.8928      2.00000
     12      -6.8927      2.00000
     13      -6.2449      2.00000
     14      -6.2447      2.00000
     15      -6.0627      2.00000
     16      -6.0625      2.00000
     17      -5.9791      2.00000
     18      -5.9787      2.00000
     19      -5.8007      2.00000
     20      -5.8004      2.00000
     21      -5.7257      2.00000
     22      -5.7256      2.00000
     23      -5.4907      2.00000
     24      -5.4905      2.00000
     25      -5.3824      2.00000
     26      -5.3817      2.00000
     27      -4.9330      2.00000
     28      -4.9327      2.00000
     29      -4.5529      2.00000
     30      -4.5523      2.00000
     31      -4.3440      2.00000
     32      -4.3439      2.00000
     33      -4.0393      2.00000
     34      -4.0389      2.00000
     35      -3.9137      2.00000
     36      -3.9131      2.00000
     37      -3.7221      2.00000
     38      -3.7217      2.00000
     39      -3.0334      1.99998
     40      -3.0332      1.99998
     41      -2.8974      1.33165
     42      -2.8970      1.32278
     43      -2.4685      0.00000
     44      -2.4684      0.00000
     45      -0.6740      0.00000
     46      -0.6736      0.00000
     47       0.9391      0.00000
     48       0.9393      0.00000

 k-point     3 :       0.0000    0.5000    0.0000
  band No.  band energies     occupation 
      1      -9.2925      2.00000
      2      -9.2922      2.00000
      3      -8.0405      2.00000
      4      -8.0400      2.00000
      5      -7.7088      2.00000
      6      -7.7088      2.00000
      7      -7.2467      2.00000
      8      -7.2467      2.00000
      9      -7.1806      2.00000
     10      -7.1806      2.00000
     11      -6.8928      2.00000
     12      -6.8927      2.00000
     13      -6.2447      2.00000
     14      -6.2447      2.00000
     15      -6.0627      2.00000
     16      -6.0627      2.00000
     17      -5.9789      2.00000
     18      -5.9788      2.00000
     19      -5.8005      2.00000
     20      -5.8004      2.00000
     21      -5.7257      2.00000
     22      -5.7254      2.00000
     23      -5.4906      2.00000
     24      -5.4904      2.00000
     25      -5.3819      2.00000
     26      -5.3819      2.00000
     27      -4.9331      2.00000
     28      -4.9327      2.00000
     29      -4.5526      2.00000
     30      -4.5526      2.00000
     31      -4.3439      2.00000
     32      -4.3439      2.00000
     33      -4.0393      2.00000
     34      -4.0390      2.00000
     35      -3.9133      2.00000
     36      -3.9133      2.00000
     37      -3.7219      2.00000
     38      -3.7219      2.00000
     39      -3.0337      1.99998
     40      -3.0331      1.99998
     41      -2.8973      1.33031
     42      -2.8973      1.32971
     43      -2.4685      0.00000
     44      -2.4684      0.00000
     45      -0.6739      0.00000
     46      -0.6739      0.00000
     47       0.9391      0.00000
     48       0.9391      0.00000

 k-point     4 :       0.5000    0.5000    0.0000
  band No.  band energies     occupation 
      1      -9.2943      2.00000
      2      -9.2940      2.00000
      3      -8.0429      2.00000
      4      -8.0424      2.00000
      5      -7.7080      2.00000
      6      -7.7079      2.00000
      7      -7.2502      2.00000
      8      -7.2502      2.00000
      9      -7.1823      2.00000
     10      -7.1823      2.00000
     11      -6.8915      2.00000
     12      -6.8914      2.00000
     13      -6.2434      2.00000
     14      -6.2433      2.00000
     15      -6.0627      2.00000
     16      -6.0627      2.00000
     17      -5.9769      2.00000
     18      -5.9768      2.00000
     19      -5.7978      2.00000
     20      -5.7978      2.00000
     21      -5.7259      2.00000
     22      -5.7256      2.00000
     23      -5.4898      2.00000
     24      -5.4896      2.00000
     25      -5.3805      2.00000
     26      -5.3804      2.00000
     27      -4.9338      2.00000
     28      -4.9334      2.00000
     29      -4.5544      2.00000
     30      -4.5543      2.00000
     31      -4.3432      2.00000
     32      -4.3432      2.00000
     33      -4.0404      2.00000
     34      -4.0401      2.00000
     35      -3.9133      2.00000
     36      -3.9133      2.00000
     37      -3.7217      2.00000
     38      -3.7217      2.00000
     39      -3.0333      1.99998
     40      -3.0327      1.99998
     41      -2.8980      1.34297
     42      -2.8980      1.34279
     43      -2.4688      0.00000
     44      -2.4686      0.00000
     45      -0.6734      0.00000
     46      -0.6733      0.00000
     47       0.9408      0.00000
     48       0.9408      0.00000


--------------------------------------------------------------------------------------------------------


 soft charge-density along one line, spin component            1
         0         1         2         3         4         5         6         7         8         9
 total charge-density along one line
 
 pseudopotential strength for first ion, spin component:            1
 -7.682  -0.007   0.000   0.001  -0.000  -7.749  -0.007   0.000
 -0.007  -7.526   0.000   0.000   0.009  -0.007  -7.597   0.000
  0.000   0.000  -7.536   0.001   0.000   0.000   0.000  -7.607
  0.001   0.000   0.001  -7.525  -0.007   0.001   0.000   0.001
 -0.000   0.009   0.000  -0.007  -7.682  -0.000   0.009   0.000
 -7.749  -0.007   0.000   0.001  -0.000  -7.801  -0.007   0.000
 -0.007  -7.597   0.000   0.000   0.009  -0.007  -7.652   0.000
  0.000   0.000  -7.607   0.001   0.000   0.000   0.000  -7.663
  0.001   0.000   0.001  -7.596  -0.007   0.001   0.000   0.001
 -0.000   0.009   0.000  -0.007  -7.749  -0.000   0.009   0.000
 -0.000   0.002  -0.041   0.003  -0.000  -0.000   0.002  -0.040
 -0.000   0.003  -0.060   0.005  -0.000  -0.000   0.003  -0.059
 -0.001   0.007   0.000  -0.000   0.001  -0.000   0.007   0.000
 -0.000  -0.001   0.013  -0.001  -0.000  -0.000  -0.001   0.013
  0.000  -0.000   0.000   0.007  -0.001   0.000  -0.000   0.000
 -0.001   0.007  -0.000  -0.000   0.001  -0.001   0.007  -0.000
 -0.000  -0.001   0.016  -0.001  -0.000  -0.000  -0.001   0.015
  0.000  -0.000  -0.000   0.007  -0.001   0.000  -0.000  -0.000
 total augmentation occupancy for first ion, spin component:            1
  2.556  -0.088  -0.019  -0.108   0.013  -1.572   0.041   0.012   0.164  -0.012   0.011  -0.001  -0.012  -0.004  -0.066   0.001
 -0.088   4.579   0.037  -0.009  -0.006   0.041  -2.528  -0.011   0.015   0.111  -0.036   0.007   0.266  -0.007  -0.006  -0.014
 -0.019   0.037   3.716   0.065  -0.008   0.012  -0.011  -2.256  -0.019   0.005   0.831  -0.164   0.004   0.272   0.006   0.000
 -0.108  -0.009   0.065   4.570  -0.088   0.159   0.015  -0.019  -2.512   0.041  -0.063   0.013  -0.006  -0.013   0.258   0.002
  0.013  -0.006  -0.008  -0.088   2.538  -0.012   0.116   0.005   0.041  -1.555   0.007  -0.001  -0.053  -0.002  -0.011   0.004
 -1.572   0.041   0.012   0.159  -0.012   2.193  -0.008  -0.004  -0.199   0.009  -0.014   0.003   0.010   0.002   0.056  -0.001
  0.041  -2.528  -0.011   0.015   0.116  -0.008   2.386  -0.007  -0.019  -0.190   0.030  -0.004  -0.240   0.008   0.004   0.017
  0.012  -0.011  -2.256  -0.019   0.005  -0.004  -0.007   2.524  -0.013  -0.001  -0.700   0.093  -0.002  -0.326  -0.003   0.000
  0.164   0.015  -0.019  -2.512   0.041  -0.199  -0.019  -0.013   2.364  -0.008   0.053  -0.007   0.004   0.015  -0.236  -0.001
 -0.012   0.111   0.005   0.041  -1.555   0.009  -0.190  -0.001  -0.008   2.180  -0.009   0.002   0.044   0.001   0.010  -0.001
  0.011  -0.036   0.831  -0.063   0.007  -0.014   0.030  -0.700   0.053  -0.009   2.333  -0.503   0.003  -0.165   0.005   0.000
 -0.001   0.007  -0.164   0.013  -0.001   0.003  -0.004   0.093  -0.007   0.002  -0.503   0.123  -0.001   0.060  -0.002  -0.000
 -0.012   0.266   0.004  -0.006  -0.053   0.010  -0.240  -0.002   0.004   0.044   0.003  -0.001   0.239   0.003  -0.004  -0.016
 -0.004  -0.007   0.272  -0.013  -0.002   0.002   0.008  -0.326   0.015   0.001  -0.165   0.060   0.003   0.127   0.005  -0.000
 -0.066  -0.006   0.006   0.258  -0.011   0.056   0.004  -0.003  -0.236   0.010   0.005  -0.002  -0.004   0.005   0.234   0.001
  0.001  -0.014   0.000   0.002   0.004  -0.001   0.017   0.000  -0.001  -0.001   0.000  -0.000  -0.016  -0.000   0.001   0.001
  0.001   0.001  -0.008   0.002   0.000   0.000  -0.000   0.018  -0.001   0.000   0.010  -0.004  -0.000  -0.007  -0.000   0.000
  0.005   0.002   0.000  -0.012   0.001  -0.002  -0.001   0.000   0.016  -0.001   0.001  -0.000   0.001  -0.000  -0.014  -0.000


------------------------ aborting loop because EDIFF is reached ----------------------------------------





 total charge

# of ion       s       p       d       tot
------------------------------------------
    1        0.602   0.385   8.051   9.038
    2        0.602   0.385   8.050   9.037
    3        0.602   0.385   8.051   9.038
    4        0.602   0.385   8.051   9.038
    5        0.602   0.385   8.052   9.039
    6        0.602   0.385   8.052   9.039
    7        0.602   0.385   8.052   9.039
    8        0.602   0.385   8.051   9.038
--------------------------------------------------
tot          4.819   3.079  64.410  72.308
 
    CHARGE:  cpu time    0.0604: real time    0.0605
    FORLOC:  cpu time    0.0058: real time    0.0058
    FORNL :  cpu time    0.1997: real time    0.2000
    FORCOR:  cpu time    0.0958: real time    0.0959
    FORHAR:  cpu time    0.0306: real time    0.0307
    MIXING:  cpu time    0.0031: real time    0.0031
    OFIELD:  cpu time    0.0000: real time    0.0000

 VOLUME and BASIS-vectors are now :
 -----------------------------------------------------------------------------
  energy-cutoff  :      420.00
  volume of cell :      886.69
      direct lattice vectors                 reciprocal lattice vectors
     5.631812000  0.000000000  0.246262000     0.177562745 -0.102254797  0.000000000
     2.810522000  4.880397000  0.246262000     0.000000000  0.204901364  0.000000000
     0.000000000  0.000000000 32.260317000    -0.001355441 -0.000783562  0.030997836

  length of vectors
     5.637193573  5.637193784 32.260317000     0.204901371  0.204901364  0.031037348


 FORCES acting on ions
    electron-ion (+dipol)            ewald-force                    non-local-force                 convergence-correction
 -----------------------------------------------------------------------------------------------
   0.489E+02 0.282E+02 -.112E+04   -.488E+02 -.282E+02 0.112E+04   -.429E-01 -.243E-01 0.159E+01   -.794E-02 0.523E-03 0.106E+00
   0.489E+02 0.282E+02 -.112E+04   -.488E+02 -.282E+02 0.112E+04   -.427E-01 -.251E-01 0.159E+01   -.139E-01 0.172E-03 0.107E+00
   0.488E+02 0.282E+02 -.112E+04   -.488E+02 -.282E+02 0.112E+04   -.424E-01 -.242E-01 0.159E+01   -.163E-02 -.102E-01 0.108E+00
   0.488E+02 0.282E+02 -.112E+04   -.488E+02 -.282E+02 0.112E+04   -.429E-01 -.254E-01 0.159E+01   0.474E-02 -.352E-02 0.109E+00
   -.488E+02 -.282E+02 0.112E+04   0.488E+02 0.282E+02 -.112E+04   0.417E-01 0.240E-01 -.159E+01   -.716E-02 0.446E-02 0.134E+00
   -.488E+02 -.282E+02 0.112E+04   0.488E+02 0.282E+02 -.112E+04   0.424E-01 0.253E-01 -.158E+01   -.115E-01 -.624E-02 0.134E+00
   -.488E+02 -.282E+02 0.112E+04   0.488E+02 0.282E+02 -.112E+04   0.430E-01 0.241E-01 -.158E+01   -.455E-02 -.200E-02 0.128E+00
   -.488E+02 -.282E+02 0.112E+04   0.488E+02 0.282E+02 -.112E+04   0.424E-01 0.247E-01 -.159E+01   0.101E-03 -.744E-02 0.129E+00
 -----------------------------------------------------------------------------------------------
   0.429E-01 0.249E-01 -.979E+00   0.142E-13 0.711E-14 -.455E-12   -.138E-02 -.788E-03 0.281E-01   -.418E-01 -.242E-01 0.955E+00
 
 
 POSITION                                       TOTAL-FORCE (eV/Angst)
 -----------------------------------------------------------------------------------
      0.65302      0.61005     17.32628         0.028726      0.016702      0.558274
      2.05828      3.05025     17.44941         0.028471      0.016876      0.556904
      3.46892      0.61005     17.44941         0.028672      0.016376      0.558401
      4.87418      3.05025     17.57254         0.028961      0.016857      0.558382
      2.16058      1.48155     15.10994        -0.028585     -0.016429     -0.558605
      3.56584      3.92175     15.23307        -0.028835     -0.016930     -0.558640
      4.97648      1.48155     15.23307        -0.028831     -0.016632     -0.558217
      6.38175      3.92175     15.35620        -0.028579     -0.016821     -0.556498
 -----------------------------------------------------------------------------------
    total drift:                               -0.000364     -0.000131      0.004277


--------------------------------------------------------------------------------------------------------



  FREE ENERGIE OF THE ION-ELECTRON SYSTEM (eV)
  ---------------------------------------------------
  free  energy   TOTEN  =       -40.44368426 eV

  energy  without entropy=      -40.40511375  energy(sigma->0) =      -40.42439900
 


--------------------------------------------------------------------------------------------------------


    POTLOK:  cpu time    0.0955: real time    0.0956


--------------------------------------------------------------------------------------------------------




--------------------------------------------------------------------------------------------------------


    WAVPRE:  cpu time    0.9313: real time    0.9363
    FEWALD:  cpu time    0.0011: real time    0.0011

 real space projection operators:
  total allocation   :       1823.48 KBytes
  max/ min on nodes  :        457.03        454.64

    ORTHCH:  cpu time    0.0775: real time    0.0776
     LOOP+:  cpu time   14.2326: real time   14.3151


--------------------------------------- Iteration      2(   1)  ---------------------------------------


    POTLOK:  cpu time    0.0917: real time    0.0919
    SETDIJ:  cpu time    0.0050: real time    0.0050
     EDDAV:  cpu time    0.7144: real time    0.7186
       DOS:  cpu time    0.0007: real time    0.0007
    CHARGE:  cpu time    0.0592: real time    0.0593
    MIXING:  cpu time    0.0024: real time    0.0024
    --------------------------------------------
      LOOP:  cpu time    0.8733: real time    0.8779

 eigenvalue-minimisations  :   384
 total energy-change (2. order) :-0.4102437E-01  (-0.1694460E+01)
 number of electron      79.9999905 magnetization 
 augmentation part       25.1520933 magnetization 

 Broyden mixing:
  rms(total) = 0.83836E-01    rms(broyden)= 0.83817E-01
  rms(prec ) = 0.84147E-01
  weight for this iteration     100.00

 Free energy of the ion-electron system (eV)
  ---------------------------------------------------
  alpha Z        PSCENC =        68.61166137
  Ewald energy   TEWEN  =     36505.87543844
  -Hartree energ DENC   =    -42221.38191313
  -exchange      EXHF   =         0.00000000
  -V(xc)+E(xc)   XCENC  =        19.19786578
  PAW double counting   =      6776.22094172    -6558.83824751
  entropy T*S    EENTRO =        -0.03856816
  eigenvalues    EBANDS =      -456.68556327
  atomic energy  EATOM  =      5826.55367459
  Solvation  Ediel_sol  =         0.00000000
  ---------------------------------------------------
  free energy    TOTEN  =       -40.48471016 eV

  energy without entropy =      -40.44614200  energy(sigma->0) =      -40.46542608


--------------------------------------------------------------------------------------------------------




--------------------------------------- Iteration      2(   2)  ---------------------------------------


    POTLOK:  cpu time    0.0874: real time    0.0876
    SETDIJ:  cpu time    0.0050: real time    0.0050
     EDDAV:  cpu time    0.7519: real time    0.7582
       DOS:  cpu time    0.0007: real time    0.0007
    CHARGE:  cpu time    0.0607: real time    0.0607
    MIXING:  cpu time    0.0025: real time    0.0025
    --------------------------------------------
      LOOP:  cpu time    0.9081: real time    0.9147

 eigenvalue-minimisations  :   400
 total energy-change (2. order) :-0.2132252E-01  (-0.2239847E-01)
 number of electron      79.9999904 magnetization 
 augmentation part       25.1595735 magnetization 

 Broyden mixing:
  rms(total) = 0.60878E-01    rms(broyden)= 0.60871E-01
  rms(prec ) = 0.62317E-01
  weight for this iteration     100.00

 eigenvalues of (default mixing * dielectric matrix)
  average eigenvalue GAMMA=   1.1475
  1.1475

 Free energy of the ion-electron system (eV)
  ---------------------------------------------------
  alpha Z        PSCENC =        68.61166137
  Ewald energy   TEWEN  =     36505.87543844
  -Hartree energ DENC   =    -42220.17693787
  -exchange      EXHF   =         0.00000000
  -V(xc)+E(xc)   XCENC  =        19.19392915
  PAW double counting   =      6768.37362242    -6550.94783757
  entropy T*S    EENTRO =        -0.03856590
  eigenvalues    EBANDS =      -457.95101732
  atomic energy  EATOM  =      5826.55367459
  Solvation  Ediel_sol  =         0.00000000
  ---------------------------------------------------
  free energy    TOTEN  =       -40.50603268 eV

  energy without entropy =      -40.46746678  energy(sigma->0) =      -40.48674973


--------------------------------------------------------------------------------------------------------




--------------------------------------- Iteration      2(   3)  ---------------------------------------


    POTLOK:  cpu time    0.0918: real time    0.0921
    SETDIJ:  cpu time    0.0050: real time    0.0050
     EDDAV:  cpu time    0.7616: real time    0.7670
       DOS:  cpu time    0.0007: real time    0.0007
    CHARGE:  cpu time    0.0607: real time    0.0608
    MIXING:  cpu time    0.0024: real time    0.0024
    --------------------------------------------
      LOOP:  cpu time    0.9222: real time    0.9280

 eigenvalue-minimisations  :   416
 total energy-change (2. order) :-0.1531351E-02  (-0.3682518E-02)
 number of electron      79.9999905 magnetization 
 augmentation part       25.1544841 magnetization 

 Broyden mixing:
  rms(total) = 0.60050E-01    rms(broyden)= 0.60046E-01
  rms(prec ) = 0.63542E-01
  weight for this iteration     100.00

 eigenvalues of (default mixing * dielectric matrix)
  average eigenvalue GAMMA=   1.2040
  1.9765  0.4315

 Free energy of the ion-electron system (eV)
  ---------------------------------------------------
  alpha Z        PSCENC =        68.61166137
  Ewald energy   TEWEN  =     36505.87543844
  -Hartree energ DENC   =    -42221.77714766
  -exchange      EXHF   =         0.00000000
  -V(xc)+E(xc)   XCENC  =        19.19948553
  PAW double counting   =      6762.07896715    -6544.61369506
  entropy T*S    EENTRO =        -0.03854929
  eigenvalues    EBANDS =      -456.39739911
  atomic energy  EATOM  =      5826.55367459
  Solvation  Ediel_sol  =         0.00000000
  ---------------------------------------------------
  free energy    TOTEN  =       -40.50756403 eV

  energy without entropy =      -40.46901474  energy(sigma->0) =      -40.48828938


--------------------------------------------------------------------------------------------------------




--------------------------------------- Iteration      2(   4)  ---------------------------------------


    POTLOK:  cpu time    0.0872: real time    0.0874
    SETDIJ:  cpu time    0.0050: real time    0.0050
     EDDAV:  cpu time    0.7441: real time    0.7480
       DOS:  cpu time    0.0007: real time    0.0007
    CHARGE:  cpu time    0.0601: real time    0.0602
    MIXING:  cpu time    0.0025: real time    0.0026
    --------------------------------------------
      LOOP:  cpu time    0.8996: real time    0.9039

 eigenvalue-minimisations  :   408
 total energy-change (2. order) : 0.3793576E-02  (-0.2013742E-02)
 number of electron      79.9999904 magnetization 
 augmentation part       25.1528923 magnetization 

 Broyden mixing:
  rms(total) = 0.41272E-01    rms(broyden)= 0.41268E-01
  rms(prec ) = 0.41903E-01
  weight for this iteration     100.00

 eigenvalues of (default mixing * dielectric matrix)
  average eigenvalue GAMMA=   2.1726
  5.3201  0.8512  0.3465

 Free energy of the ion-electron system (eV)
  ---------------------------------------------------
  alpha Z        PSCENC =        68.61166137
  Ewald energy   TEWEN  =     36505.87543844
  -Hartree energ DENC   =    -42222.55306408
  -exchange      EXHF   =         0.00000000
  -V(xc)+E(xc)   XCENC  =        19.20148619
  PAW double counting   =      6755.33557464    -6537.83116645
  entropy T*S    EENTRO =        -0.03856115
  eigenvalues    EBANDS =      -455.65881401
  atomic energy  EATOM  =      5826.55367459
  Solvation  Ediel_sol  =         0.00000000
  ---------------------------------------------------
  free energy    TOTEN  =       -40.50377045 eV

  energy without entropy =      -40.46520930  energy(sigma->0) =      -40.48448988


--------------------------------------------------------------------------------------------------------




--------------------------------------- Iteration      2(   5)  ---------------------------------------


    POTLOK:  cpu time    0.0896: real time    0.0898
    SETDIJ:  cpu time    0.0052: real time    0.0052
     EDDAV:  cpu time    0.7585: real time    0.7621
       DOS:  cpu time    0.0007: real time    0.0007
    CHARGE:  cpu time    0.0615: real time    0.0616
    MIXING:  cpu time    0.0025: real time    0.0025
    --------------------------------------------
      LOOP:  cpu time    0.9181: real time    0.9220

 eigenvalue-minimisations  :   408
 total energy-change (2. order) :-0.6645514E-03  (-0.7919695E-03)
 number of electron      79.9999904 magnetization 
 augmentation part       25.1547572 magnetization 

 Broyden mixing:
  rms(total) = 0.19982E-01    rms(broyden)= 0.19980E-01
  rms(prec ) = 0.21909E-01
  weight for this iteration     100.00

 eigenvalues of (default mixing * dielectric matrix)
  average eigenvalue GAMMA=   1.7432
  5.0548  0.7745  0.7745  0.3692

 Free energy of the ion-electron system (eV)
  ---------------------------------------------------
  alpha Z        PSCENC =        68.61166137
  Ewald energy   TEWEN  =     36505.87543844
  -Hartree energ DENC   =    -42222.66616132
  -exchange      EXHF   =         0.00000000
  -V(xc)+E(xc)   XCENC  =        19.19951130
  PAW double counting   =      6736.34071472    -6518.73391662
  entropy T*S    EENTRO =        -0.03854995
  eigenvalues    EBANDS =      -455.64680754
  atomic energy  EATOM  =      5826.55367459
  Solvation  Ediel_sol  =         0.00000000
  ---------------------------------------------------
  free energy    TOTEN  =       -40.50443500 eV

  energy without entropy =      -40.46588505  energy(sigma->0) =      -40.48516003


--------------------------------------------------------------------------------------------------------




--------------------------------------- Iteration      2(   6)  ---------------------------------------


    POTLOK:  cpu time    0.0913: real time    0.0916
    SETDIJ:  cpu time    0.0050: real time    0.0050
     EDDAV:  cpu time    0.7799: real time    0.7840
       DOS:  cpu time    0.0008: real time    0.0008
    CHARGE:  cpu time    0.0595: real time    0.0596
    MIXING:  cpu time    0.0027: real time    0.0027
    --------------------------------------------
      LOOP:  cpu time    0.9391: real time    0.9436

 eigenvalue-minimisations  :   424
 total energy-change (2. order) : 0.9395216E-03  (-0.4808672E-03)
 number of electron      79.9999904 magnetization 
 augmentation part       25.1564795 magnetization 

 Broyden mixing:
  rms(total) = 0.17173E-01    rms(broyden)= 0.17168E-01
  rms(prec ) = 0.17999E-01
  weight for this iteration     100.00

 eigenvalues of (default mixing * dielectric matrix)
  average eigenvalue GAMMA=   1.4978
  4.7820  1.0084  1.0084  0.3550  0.3353

 Free energy of the ion-electron system (eV)
  ---------------------------------------------------
  alpha Z        PSCENC =        68.61166137
  Ewald energy   TEWEN  =     36505.87543844
  -Hartree energ DENC   =    -42221.88850206
  -exchange      EXHF   =         0.00000000
  -V(xc)+E(xc)   XCENC  =        19.19814364
  PAW double counting   =      6736.69106385    -6519.08734012
  entropy T*S    EENTRO =        -0.03847473
  eigenvalues    EBANDS =      -456.41916046
  atomic energy  EATOM  =      5826.55367459
  Solvation  Ediel_sol  =         0.00000000
  ---------------------------------------------------
  free energy    TOTEN  =       -40.50349548 eV

  energy without entropy =      -40.46502075  energy(sigma->0) =      -40.48425812


--------------------------------------------------------------------------------------------------------




--------------------------------------- Iteration      2(   7)  ---------------------------------------


    POTLOK:  cpu time    0.0912: real time    0.0921
    SETDIJ:  cpu time    0.0051: real time    0.0051
     EDDAV:  cpu time    0.7470: real time    0.7510
       DOS:  cpu time    0.0007: real time    0.0007
    CHARGE:  cpu time    0.0573: real time    0.0575
    MIXING:  cpu time    0.0027: real time    0.0027
    --------------------------------------------
      LOOP:  cpu time    0.9039: real time    0.9090

 eigenvalue-minimisations  :   408
 total energy-change (2. order) : 0.3136249E-03  (-0.1777227E-03)
 number of electron      79.9999904 magnetization 
 augmentation part       25.1573084 magnetization 

 Broyden mixing:
  rms(total) = 0.57973E-02    rms(broyden)= 0.57902E-02
  rms(prec ) = 0.60440E-02
  weight for this iteration     100.00

 eigenvalues of (default mixing * dielectric matrix)
  average eigenvalue GAMMA=   1.4446
  4.8354  1.1777  1.1777  0.8041  0.3659  0.3066

 Free energy of the ion-electron system (eV)
  ---------------------------------------------------
  alpha Z        PSCENC =        68.61166137
  Ewald energy   TEWEN  =     36505.87543844
  -Hartree energ DENC   =    -42221.48660305
  -exchange      EXHF   =         0.00000000
  -V(xc)+E(xc)   XCENC  =        19.19794151
  PAW double counting   =      6737.19651696    -6519.59559271
  entropy T*S    EENTRO =        -0.03856670
  eigenvalues    EBANDS =      -456.81765228
  atomic energy  EATOM  =      5826.55367459
  Solvation  Ediel_sol  =         0.00000000
  ---------------------------------------------------
  free energy    TOTEN  =       -40.50318185 eV

  energy without entropy =      -40.46461516  energy(sigma->0) =      -40.48389851


--------------------------------------------------------------------------------------------------------




--------------------------------------- Iteration      2(   8)  ---------------------------------------


    POTLOK:  cpu time    0.0959: real time    0.0962
    SETDIJ:  cpu time    0.0051: real time    0.0051
     EDDAV:  cpu time    0.5090: real time    0.5098
       DOS:  cpu time    0.0007: real time    0.0007
    --------------------------------------------
[...]


--------------------------------------------------------------------------------------------------------




--------------------------------------- Iteration     28(   4)  ---------------------------------------


    POTLOK:  cpu time    0.0918: real time    0.0923
    SETDIJ:  cpu time    0.0050: real time    0.0050
     EDDAV:  cpu time    0.4582: real time    0.4607
       DOS:  cpu time    0.0006: real time    0.0006
    --------------------------------------------
      LOOP:  cpu time    0.5556: real time    0.5586

 eigenvalue-minimisations  :   192
 total energy-change (2. order) :-0.4265952E-05  (-0.8094658E-05)
 number of electron      79.9999935 magnetization 
 augmentation part       25.1582187 magnetization 

 Free energy of the ion-electron system (eV)
  ---------------------------------------------------
  alpha Z        PSCENC =        68.61166137
  Ewald energy   TEWEN  =     36195.46909497
  -Hartree energ DENC   =    -41914.52302966
  -exchange      EXHF   =         0.00000000
  -V(xc)+E(xc)   XCENC  =        18.70249629
  PAW double counting   =      6649.26249467    -6431.16289584
  entropy T*S    EENTRO =        -0.03825482
  eigenvalues    EBANDS =      -453.50709394
  atomic energy  EATOM  =      5826.55367459
  Solvation  Ediel_sol  =         0.00000000
  ---------------------------------------------------
  free energy    TOTEN  =       -40.63185236 eV

  energy without entropy =      -40.59359755  energy(sigma->0) =      -40.61272495


--------------------------------------------------------------------------------------------------------




 average (electrostatic) potential at core
  the test charge radii are     1.2059
  (the norm of the test charge is              1.0000)
       1 -76.5350       2 -76.5352       3 -76.5338       4 -76.5354       5 -76.5369
       6 -76.5357       7 -76.5346       8 -76.5372
 
 
 
 E-fermi :  -2.9633     XC(G=0):  -2.4775     alpha+bet : -2.2606

 Fermi energy:        -2.9632587252

 k-point     1 :       0.0000    0.0000    0.0000
  band No.  band energies     occupation 
      1     -10.8310      2.00000
      2      -9.3404      2.00000
      3      -8.4769      2.00000
      4      -8.4550      2.00000
      5      -8.4547      2.00000
      6      -8.4238      2.00000
      7      -8.4234      2.00000
      8      -8.3837      2.00000
      9      -7.5105      2.00000
     10      -7.5099      2.00000
     11      -7.4769      2.00000
     12      -6.4521      2.00000
     13      -6.2930      2.00000
     14      -6.2909      2.00000
     15      -6.1667      2.00000
     16      -5.8964      2.00000
     17      -5.8738      2.00000
     18      -5.7563      2.00000
     19      -5.6872      2.00000
     20      -4.9065      2.00000
     21      -4.9058      2.00000
     22      -4.8709      2.00000
     23      -4.3398      2.00000
     24      -4.3377      2.00000
     25      -4.3083      2.00000
     26      -4.1637      2.00000
     27      -3.9533      2.00000
     28      -3.8260      2.00000
     29      -3.7543      2.00000
     30      -3.7062      2.00000
     31      -3.7047      2.00000
     32      -3.3763      2.00000
     33      -3.3379      2.00000
     34      -3.3371      2.00000
     35      -3.1874      2.00000
     36      -3.0146      1.85336
     37      -2.5908      0.00000
     38      -2.5544      0.00000
     39      -2.5537      0.00000
     40      -2.4766      0.00000
     41      -2.4759      0.00000
     42      -2.4420      0.00000
     43      -1.9652      0.00000
     44      -1.2964      0.00000
     45      -1.2945      0.00000
     46      -1.0941      0.00000
     47      -0.2607      0.00000
     48       0.0068      0.00000

 k-point     2 :       0.5000    0.0000    0.0000
  band No.  band energies     occupation 
      1      -9.1018      2.00000
      2      -9.1015      2.00000
      3      -7.9618      2.00000
      4      -7.9617      2.00000
      5      -7.4708      2.00000
      6      -7.4706      2.00000
      7      -7.0943      2.00000
      8      -7.0939      2.00000
      9      -6.9845      2.00000
     10      -6.9842      2.00000
     11      -6.7235      2.00000
     12      -6.7235      2.00000
     13      -6.1380      2.00000
     14      -6.1377      2.00000
     15      -6.0518      2.00000
     16      -6.0515      2.00000
     17      -5.8629      2.00000
     18      -5.8623      2.00000
     19      -5.7741      2.00000
     20      -5.7732      2.00000
     21      -5.7318      2.00000
     22      -5.7316      2.00000
     23      -5.4890      2.00000
     24      -5.4887      2.00000
     25      -5.3166      2.00000
     26      -5.3160      2.00000
     27      -4.7248      2.00000
     28      -4.7244      2.00000
     29      -4.4686      2.00000
     30      -4.4681      2.00000
     31      -4.4411      2.00000
     32      -4.4409      2.00000
     33      -4.0564      2.00000
     34      -4.0561      2.00000
     35      -4.0425      2.00000
     36      -4.0418      2.00000
     37      -3.8101      2.00000
     38      -3.8097      2.00000
     39      -3.1381      2.00000
     40      -3.1377      2.00000
     41      -2.9888      1.53000
     42      -2.9887      1.52888
     43      -2.5905      0.00000
     44      -2.5903      0.00000
     45      -0.6380      0.00000
     46      -0.6375      0.00000
     47       0.8441      0.00000
     48       0.8441      0.00000

 k-point     3 :       0.0000    0.5000    0.0000
  band No.  band energies     occupation 
      1      -9.1025      2.00000
      2      -9.1010      2.00000
      3      -7.9627      2.00000
      4      -7.9618      2.00000
      5      -7.4710      2.00000
      6      -7.4704      2.00000
      7      -7.0948      2.00000
      8      -7.0940      2.00000
      9      -6.9844      2.00000
     10      -6.9837      2.00000
     11      -6.7237      2.00000
     12      -6.7229      2.00000
     13      -6.1372      2.00000
     14      -6.1360      2.00000
     15      -6.0530      2.00000
     16      -6.0521      2.00000
     17      -5.8635      2.00000
     18      -5.8619      2.00000
     19      -5.7742      2.00000
     20      -5.7723      2.00000
     21      -5.7326      2.00000
     22      -5.7313      2.00000
     23      -5.4888      2.00000
     24      -5.4876      2.00000
     25      -5.3158      2.00000
     26      -5.3152      2.00000
     27      -4.7261      2.00000
     28      -4.7239      2.00000
     29      -4.4693      2.00000
     30      -4.4677      2.00000
     31      -4.4419      2.00000
     32      -4.4414      2.00000
     33      -4.0577      2.00000
     34      -4.0556      2.00000
     35      -4.0426      2.00000
     36      -4.0412      2.00000
     37      -3.8104      2.00000
     38      -3.8101      2.00000
     39      -3.1374      2.00000
     40      -3.1369      2.00000
     41      -2.9891      1.53453
     42      -2.9889      1.53222
     43      -2.5910      0.00000
     44      -2.5900      0.00000
     45      -0.6380      0.00000
     46      -0.6373      0.00000
     47       0.8441      0.00000
     48       0.8444      0.00000

 k-point     4 :       0.5000    0.5000    0.0000
  band No.  band energies     occupation 
      1      -9.0975      2.00000
      2      -9.0967      2.00000
      3      -7.9266      2.00000
      4      -7.9260      2.00000
      5      -7.4781      2.00000
      6      -7.4775      2.00000
      7      -7.0650      2.00000
      8      -7.0638      2.00000
      9      -7.0080      2.00000
     10      -7.0069      2.00000
     11      -6.7601      2.00000
     12      -6.7598      2.00000
     13      -6.2405      2.00000
     14      -6.2402      2.00000
     15      -5.9492      2.00000
     16      -5.9485      2.00000
     17      -5.8725      2.00000
     18      -5.8716      2.00000
     19      -5.7857      2.00000
     20      -5.7834      2.00000
     21      -5.6737      2.00000
     22      -5.6732      2.00000
     23      -5.5248      2.00000
     24      -5.5245      2.00000
     25      -5.4101      2.00000
     26      -5.4091      2.00000
     27      -4.7112      2.00000
     28      -4.7107      2.00000
     29      -4.4704      2.00000
     30      -4.4696      2.00000
     31      -4.4089      2.00000
     32      -4.4085      2.00000
     33      -4.0313      2.00000
     34      -4.0294      2.00000
     35      -4.0250      2.00000
     36      -4.0242      2.00000
     37      -3.8160      2.00000
     38      -3.8144      2.00000
     39      -3.1732      2.00000
     40      -3.1727      2.00000
     41      -2.9643      1.02260
     42      -2.9632      0.99841
     43      -2.5819      0.00000
     44      -2.5813      0.00000
     45      -0.6540      0.00000
     46      -0.6518      0.00000
     47       0.8347      0.00000
     48       0.8352      0.00000


--------------------------------------------------------------------------------------------------------


 soft charge-density along one line, spin component            1
         0         1         2         3         4         5         6         7         8         9
 total charge-density along one line
 
 pseudopotential strength for first ion, spin component:            1
 -7.680  -0.003  -0.006   0.002  -0.001  -7.747  -0.003  -0.006
 -0.003  -7.520   0.003   0.001   0.006  -0.003  -7.591   0.003
 -0.006   0.003  -7.531   0.006  -0.004  -0.006   0.003  -7.602
  0.002   0.001   0.006  -7.519  -0.003   0.002   0.001   0.005
 -0.001   0.006  -0.004  -0.003  -7.678  -0.001   0.006  -0.004
 -7.747  -0.003  -0.006   0.002  -0.001  -7.798  -0.003  -0.006
 -0.003  -7.591   0.003   0.001   0.006  -0.003  -7.647   0.003
 -0.006   0.003  -7.602   0.005  -0.004  -0.006   0.003  -7.658
  0.002   0.001   0.005  -7.590  -0.003   0.002   0.001   0.005
 -0.001   0.006  -0.004  -0.003  -7.745  -0.001   0.006  -0.003
 -0.001   0.000  -0.042   0.000  -0.001  -0.001   0.000  -0.041
 -0.001   0.000  -0.062   0.001  -0.001  -0.001   0.000  -0.060
  0.001   0.007  -0.001  -0.000  -0.001   0.001   0.007  -0.001
 -0.000   0.000   0.012   0.001  -0.000  -0.000   0.000   0.012
  0.000  -0.000  -0.001   0.007   0.001   0.001  -0.000  -0.001
  0.002   0.007  -0.001  -0.000  -0.001   0.002   0.007  -0.001
 -0.000   0.000   0.015   0.001  -0.000  -0.000   0.000   0.014
  0.001  -0.000  -0.002   0.007   0.002   0.001  -0.000  -0.002
 total augmentation occupancy for first ion, spin component:            1
  2.367  -0.084  -0.121  -0.100  -0.054  -1.395   0.039   0.078   0.140   0.030  -0.041   0.001  -0.002  -0.004  -0.056  -0.002
 -0.084   4.336   0.065  -0.015  -0.003   0.041  -2.235  -0.015  -0.013   0.090   0.000   0.001   0.200  -0.005   0.012  -0.007
 -0.121   0.065   3.457   0.112  -0.069   0.082  -0.017  -1.971  -0.028   0.047   0.922  -0.179  -0.003   0.193  -0.004  -0.000
 -0.100  -0.015   0.112   4.318  -0.085   0.137  -0.013  -0.026  -2.249   0.041  -0.000   0.002   0.012  -0.010   0.214  -0.000
 -0.054  -0.003  -0.069  -0.085   2.431   0.030   0.095   0.045   0.039  -1.431  -0.024   0.001  -0.054  -0.002  -0.003   0.007
 -1.395   0.041   0.082   0.137   0.030   2.025  -0.008  -0.055  -0.164  -0.012   0.043  -0.008   0.012  -0.002   0.043  -0.004
  0.039  -2.235  -0.017  -0.013   0.095  -0.008   2.049  -0.018   0.034  -0.155   0.006  -0.002  -0.177   0.012  -0.012   0.011
  0.078  -0.015  -1.971  -0.026   0.045  -0.055  -0.018   2.209  -0.031  -0.032  -0.802   0.115   0.000  -0.270  -0.001   0.004
  0.140  -0.013  -0.028  -2.249   0.039  -0.164   0.034  -0.031   2.088  -0.008   0.011  -0.004  -0.012   0.022  -0.191   0.001
  0.030   0.090   0.047   0.041  -1.431  -0.012  -0.155  -0.032  -0.008   2.040   0.025  -0.005   0.031  -0.001   0.012   0.005
 -0.041   0.000   0.922  -0.000  -0.024   0.043   0.006  -0.802   0.011   0.025   2.248  -0.467   0.015  -0.152   0.026  -0.006
  0.001   0.001  -0.179   0.002   0.001  -0.008  -0.002   0.115  -0.004  -0.005  -0.467   0.111  -0.003   0.054  -0.005   0.001
 -0.002   0.200  -0.003   0.012  -0.054   0.012  -0.177   0.000  -0.012   0.031   0.015  -0.003   0.222   0.001   0.002  -0.013
 -0.004  -0.005   0.193  -0.010  -0.002  -0.002   0.012  -0.270   0.022  -0.001  -0.152   0.054   0.001   0.116   0.003  -0.000
 -0.056   0.012  -0.004   0.214  -0.003   0.043  -0.012  -0.001  -0.191   0.012   0.026  -0.005   0.002   0.003   0.225  -0.000
 -0.002  -0.007  -0.000  -0.000   0.007  -0.004   0.011   0.004   0.001   0.005  -0.006   0.001  -0.013  -0.000  -0.000   0.001
 -0.000  -0.001   0.011  -0.001  -0.000   0.001  -0.001   0.016  -0.001   0.000   0.019  -0.006  -0.000  -0.008  -0.000   0.000
  0.005  -0.000  -0.000  -0.007  -0.002  -0.000   0.001   0.006   0.011  -0.004  -0.010   0.002  -0.000  -0.000  -0.014  -0.000


------------------------ aborting loop because EDIFF is reached ----------------------------------------





 total charge

# of ion       s       p       d       tot
------------------------------------------
    1        0.597   0.363   8.038   8.998
    2        0.597   0.363   8.037   8.997
    3        0.597   0.363   8.036   8.997
    4        0.597   0.363   8.038   8.999
    5        0.598   0.364   8.037   8.999
    6        0.597   0.364   8.036   8.997
    7        0.597   0.364   8.035   8.996
    8        0.598   0.364   8.037   8.999
--------------------------------------------------
tot          4.779   2.907  64.295  71.981
 
    CHARGE:  cpu time    0.0564: real time    0.0567
    FORLOC:  cpu time    0.0056: real time    0.0056
    FORNL :  cpu time    0.1985: real time    0.2008
    FORCOR:  cpu time    0.0941: real time    0.0944
    FORHAR:  cpu time    0.0305: real time    0.0306
    MIXING:  cpu time    0.0022: real time    0.0022
    OFIELD:  cpu time    0.0000: real time    0.0000

 VOLUME and BASIS-vectors are now :
 -----------------------------------------------------------------------------
  energy-cutoff  :      420.00
  volume of cell :      886.69
      direct lattice vectors                 reciprocal lattice vectors
     5.631812000  0.000000000  0.246262000     0.177562745 -0.102254797  0.000000000
     2.810522000  4.880397000  0.246262000     0.000000000  0.204901364  0.000000000
     0.000000000  0.000000000 32.260317000    -0.001355441 -0.000783562  0.030997836

  length of vectors
     5.637193573  5.637193784 32.260317000     0.204901371  0.204901364  0.031037348


 FORCES acting on ions
    electron-ion (+dipol)            ewald-force                    non-local-force                 convergence-correction
 -----------------------------------------------------------------------------------------------
   0.497E+02 0.285E+02 -.111E+04   -.497E+02 -.285E+02 0.111E+04   -.695E-01 -.283E-01 0.101E+01   -.136E-01 0.311E-02 -.941E-01
   0.494E+02 0.290E+02 -.111E+04   -.494E+02 -.290E+02 0.111E+04   -.585E-01 -.400E-01 0.103E+01   0.170E-01 0.683E-02 0.182E-01
   0.496E+02 0.284E+02 -.111E+04   -.496E+02 -.284E+02 0.111E+04   -.597E-01 -.262E-01 0.102E+01   0.105E-01 0.111E-01 -.682E-01
   0.497E+02 0.288E+02 -.111E+04   -.497E+02 -.288E+02 0.111E+04   -.670E-01 -.325E-01 0.101E+01   0.537E-02 0.223E-02 -.789E-01
   -.499E+02 -.288E+02 0.111E+04   0.496E+02 0.287E+02 -.111E+04   0.177E+00 0.105E+00 -.106E+01   0.101E-01 0.356E-02 -.317E-01
   -.499E+02 -.288E+02 0.111E+04   0.496E+02 0.287E+02 -.111E+04   0.178E+00 0.103E+00 -.106E+01   -.479E-02 -.249E-02 -.460E-01
   -.499E+02 -.288E+02 0.111E+04   0.496E+02 0.287E+02 -.111E+04   0.178E+00 0.103E+00 -.106E+01   -.653E-02 -.380E-02 -.477E-01
   -.498E+02 -.288E+02 0.111E+04   0.496E+02 0.287E+02 -.111E+04   0.177E+00 0.104E+00 -.106E+01   0.866E-02 0.734E-02 -.316E-01
 -----------------------------------------------------------------------------------------------
   -.103E+01 -.604E+00 0.147E+01   -.142E-13 0.000E+00 -.682E-12   0.454E+00 0.288E+00 -.174E+00   0.267E-01 0.279E-01 -.380E+00
 
 
 POSITION                                       TOTAL-FORCE (eV/Angst)
 -----------------------------------------------------------------------------------
      0.74267      0.66190     17.42844        -0.001699      0.006151      0.008360
      2.14667      3.10379     17.55098         0.008784      0.001794      0.017933
      3.55777      0.66259     17.55145         0.009244      0.011226      0.008056
      4.96335      3.10230     17.67440         0.002429      0.005076      0.013380
      2.16058      1.48155     15.10994        -0.004383     -0.005688     -0.012658
      3.56584      3.92175     15.23307        -0.004615     -0.006388     -0.011524
      4.97648      1.48155     15.23307        -0.005049     -0.006620     -0.008746
      6.38175      3.92175     15.35620        -0.004712     -0.005551     -0.014800
 -----------------------------------------------------------------------------------
    total drift:                               -0.544520     -0.287756      0.914510


--------------------------------------------------------------------------------------------------------



  FREE ENERGIE OF THE ION-ELECTRON SYSTEM (eV)
  ---------------------------------------------------
  free  energy   TOTEN  =       -40.63185236 eV

  energy  without entropy=      -40.59359755  energy(sigma->0) =      -40.61272495
 
 d Force = 0.9865157E-04[-0.541E-05, 0.203E-03]  d Energy =-0.3398314E-03 0.438E-03
 d Force =-0.3526685E+01[-0.352E+01,-0.353E+01]  d Ewald  =-0.3526685E+01 0.253E-07


--------------------------------------------------------------------------------------------------------


    POTLOK:  cpu time    0.0949: real time    0.0955


--------------------------------------------------------------------------------------------------------


 Conjugate gradient step on ions:
 trial-energy change:    0.000340  1 .order   -0.000099   -0.000203    0.000005
  (g-gl).g = 0.117E-03      g.g   = 0.242E-03  gl.gl    = 0.273E-03
 g(Force)  = 0.242E-03   g(Stress)= 0.000E+00 ortho     =-0.427E-04
 gamma     =   0.42724
 trial     =   0.90753
 opt step  =   0.88395  (harmonic =   0.88395) maximal distance =0.00167263
 next E    =   -40.632291   (d E  =  -0.00010)


--------------------------------------------------------------------------------------------------------


  
 reached required accuracy - stopping structural energy minimisation
     LOOP+:  cpu time    3.5229: real time    3.5580
    4ORBIT:  cpu time    0.0000: real time    0.0000



 total charge

# of ion       s       p       d       tot
------------------------------------------
    1        0.597   0.363   8.038   8.998
    2        0.597   0.363   8.037   8.997
    3        0.597   0.363   8.036   8.997
    4        0.597   0.363   8.038   8.999
    5        0.598   0.364   8.037   8.999
    6        0.597   0.364   8.036   8.997
    7        0.597   0.364   8.035   8.996
    8        0.598   0.364   8.037   8.999
--------------------------------------------------
tot          4.779   2.907  64.295  71.981
 

 total amount of memory used by VASP MPI-rank0    42313. kBytes
=======================================================================

   base      :      30000. kBytes
   nonlr-proj:        791. kBytes
   fftplans  :       3347. kBytes
   grid      :       4771. kBytes
   one-center:         31. kBytes
   wavefun   :       3373. kBytes
 
  
  
 General timing and accounting informations for this job:
 ========================================================
  
                  Total CPU time used (sec):      138.269
                            User time (sec):      137.874
                          System time (sec):        0.395
                         Elapsed time (sec):      146.835
  
                   Maximum memory used (kb):       82380.
                   Average memory used (kb):          N/A
  
                          Minor page faults:        48131
                          Major page faults:         8620
                 Voluntary context switches:         5830
