<?xml version="1.0" encoding="ISO-8859-1"?>
<modeling>
 <generator>
  <i name="program" type="string">vasp </i>
  <i name="version" type="string">6.2.0  </i>
  <i name="subversion" type="string">18Jan21 (build Feb  1 2022 01:28:57) complex                          parallel </i>
  <i name="platform" type="string">LinuxPGI </i>
  <i name="date" type="string">2022 05 17 </i>
  <i name="time" type="string">00:42:43 </i>
 </generator>
 <incar>
  <i type="string" name="PREC">Normal</i>
  <i type="string" name="ALGO">38</i>
  <i type="int" name="ISPIN">     1</i>
  <i name="AMIX">      0.20000000</i>
  <i name="BMIX">      0.00100000</i>
  <i name="AMIN">      0.01000000</i>
  <i type="int" name="NELM">    80</i>
  <i type="int" name="NELMIN">     4</i>
  <i type="int" name="IBRION">     2</i>
  <i name="EDIFF">      0.00010000</i>
  <i name="EDIFFG">     -0.03000000</i>
  <i type="int" name="NSW">   300</i>
  <i type="int" name="ISIF">     0</i>
  <i type="int" name="ISYM">     0</i>
  <i name="SYMPREC">      0.00001000</i>
  <i name="ENCUT">    420.00000000</i>
  <i type="logical" name="LREAL"> T  </i>
  <i type="int" name="ISMEAR">     0</i>
  <i name="SIGMA">      0.05000000</i>
  <i type="logical" name="LWAVE"> F  </i>
  <i type="logical" name="LVTOT"> F  </i>
  <i type="int" name="LORBIT">    11</i>
  <i type="logical" name="LASPH"> F  </i>
  <i type="string" name="GGA">RP</i>
 </incar>
 <primitive_cell>
  <structure name="primitive_cell" >
   <crystal>
    <varray name="basis" >
     <v>       5.63181200       0.00000000       0.24626200 </v>
     <v>       2.81052200       4.88039700       0.24626200 </v>
     <v>       0.00000000       0.00000000      32.26031700 </v>
    </varray>
    <i name="volume">    886.69024574 </i>
    <varray name="rec_basis" >
     <v>       0.17756275      -0.10225480       0.00000000 </v>
     <v>       0.00000000       0.20490136       0.00000000 </v>
     <v>      -0.00135544      -0.00078356       0.03099784 </v>
    </varray>
   </crystal>
   <varray name="positions" >
    <v>       0.05357100       0.12500000       0.53571400 </v>
    <v>       0.05357100       0.62500000       0.53571400 </v>
    <v>       0.55357100       0.12500000       0.53571400 </v>
    <v>       0.55357100       0.62500000       0.53571400 </v>
    <v>       0.23214300       0.30357100       0.46428600 </v>
    <v>       0.23214300       0.80357100       0.46428600 </v>
    <v>       0.73214300       0.30357100       0.46428600 </v>
    <v>       0.73214300       0.80357100       0.46428600 </v>
   </varray>
  </structure>
  <varray name="primitive_index" >
   <v type="int" >        1 </v>
   <v type="int" >        2 </v>
   <v type="int" >        3 </v>
   <v type="int" >        4 </v>
   <v type="int" >        5 </v>
   <v type="int" >        6 </v>
   <v type="int" >        7 </v>
   <v type="int" >        8 </v>
  </varray>
 </primitive_cell>
 <kpoints>
  <generation param="Gamma">
   <v type="int" name="divisions">       2        2        1 </v>
   <v name="usershift">      0.00000000       0.00000000       0.00000000 </v>
   <v name="genvec1">      0.50000000       0.00000000       0.00000000 </v>
   <v name="genvec2">      0.00000000       0.50000000       0.00000000 </v>
   <v name="genvec3">      0.00000000       0.00000000       1.00000000 </v>
   <v name="shift">      0.00000000       0.00000000       0.00000000 </v>
  </generation>
  <varray name="kpointlist" >
   <v>       0.00000000       0.00000000       0.00000000 </v>
   <v>       0.50000000       0.00000000       0.00000000 </v>
   <v>       0.00000000       0.50000000       0.00000000 </v>
   <v>       0.50000000       0.50000000       0.00000000 </v>
  </varray>
  <varray name="weights" >
   <v>       0.25000000 </v>
   <v>       0.25000000 </v>
   <v>       0.25000000 </v>
   <v>       0.25000000 </v>
  </varray>
 </kpoints>
 <parameters>
  <separator name="general" >
   <i type="string" name="SYSTEM">unknown system</i>
   <i type="logical" name="LCOMPAT"> F  </i>
  </separator>
  <separator name="electronic" >
   <i type="string" name="PREC">normal</i>
   <i name="ENMAX">    420.00000000</i>
   <i name="ENAUG">    358.96600000</i>
   <i name="EDIFF">      0.00010000</i>
   <i type="int" name="IALGO">    38</i>
   <i type="int" name="IWAVPR">    11</i>
   <i type="int" name="NBANDS">    48</i>
   <i type="int" name="NBANDSLOW">    -1</i>
   <i type="int" name="NBANDSHIGH">    -1</i>
   <i name="NELECT">     80.00000000</i>
   <i type="int" name="TURBO">     0</i>
   <i type="int" name="IRESTART">     0</i>
   <i type="int" name="NREBOOT">     0</i>
   <i type="int" name="NMIN">     0</i>
   <i name="EREF">      0.00000000</i>
   <separator name="electronic smearing" >
    <i type="int" name="ISMEAR">     0</i>
    <i name="SIGMA">      0.05000000</i>
    <i name="KSPACING">      0.50000000</i>
    <i type="logical" name="KGAMMA"> T  </i>
    <i type="logical" name="KBLOWUP"> T  </i>
   </separator>
   <separator name="electronic projectors" >
    <i type="logical" name="LREAL"> T  </i>
    <v name="ROPT">      0.00000000</v>
    <i type="int" name="LMAXPAW">  -100</i>
    <i type="int" name="LMAXMIX">     2</i>
    <i type="logical" name="NLSPLINE"> F  </i>
   </separator>
   <separator name="electronic startup" >
    <i type="int" name="ISTART">     0</i>
    <i type="int" name="ICHARG">     2</i>
    <i type="int" name="INIWAV">     1</i>
   </separator>
   <separator name="electronic spin" >
    <i type="int" name="ISPIN">     1</i>
    <i type="logical" name="LNONCOLLINEAR"> F  </i>
    <v name="MAGMOM">      1.00000000      1.00000000      1.00000000      1.00000000      1.00000000      1.00000000      1.00000000      1.00000000</v>
    <i name="NUPDOWN">     -1.00000000</i>
    <i type="logical" name="LSORBIT"> F  </i>
    <v name="SAXIS">      0.00000000      0.00000000      1.00000000</v>
    <i type="logical" name="LSPIRAL"> F  </i>
    <v name="QSPIRAL">      0.00000000      0.00000000      0.00000000</v>
    <i type="logical" name="LZEROZ"> F  </i>
   </separator>
   <separator name="electronic exchange-correlation" >
    <i type="logical" name="LASPH"> F  </i>
    <i type="logical" name="LMETAGGA"> F  </i>
   </separator>
   <separator name="electronic convergence" >
    <i type="int" name="NELM">    80</i>
    <i type="int" name="NELMDL">    -5</i>
    <i type="int" name="NELMIN">     4</i>
    <i name="ENINI">    420.00000000</i>
    <separator name="electronic convergence detail" >
     <i type="logical" name="LDIAG"> T  </i>
     <i type="logical" name="LSUBROT"> F  </i>
     <i name="WEIMIN">      0.00100000</i>
     <i name="EBREAK">      0.00000052</i>
     <i name="DEPER">      0.30000000</i>
     <i type="int" name="NRMM">     4</i>
     <i name="TIME">      0.40000000</i>
    </separator>
   </separator>
   <separator name="electronic mixer" >
    <i name="AMIX">      0.20000000</i>
    <i name="BMIX">      0.00100000</i>
    <i name="AMIN">      0.01000000</i>
    <i name="AMIX_MAG">      0.80000000</i>
    <i name="BMIX_MAG">      0.00100000</i>
    <separator name="electronic mixer details" >
     <i type="int" name="IMIX">     4</i>
     <i type="logical" name="MIXFIRST"> F  </i>
     <i type="int" name="MAXMIX">   -45</i>
     <i name="WC">    100.00000000</i>
     <i type="int" name="INIMIX">     1</i>
     <i type="int" name="MIXPRE">     1</i>
     <i type="int" name="MREMOVE">     5</i>
    </separator>
   </separator>
   <separator name="electronic dipolcorrection" >
    <i type="logical" name="LDIPOL"> F  </i>
    <i type="logical" name="LMONO"> F  </i>
    <i type="int" name="IDIPOL">     0</i>
    <i name="EPSILON">      1.00000000</i>
    <v name="DIPOL">   -100.00000000   -100.00000000   -100.00000000</v>
    <i name="EFIELD">      0.00000000</i>
   </separator>
  </separator>
  <separator name="grids" >
   <i type="int" name="NGX">    28</i>
   <i type="int" name="NGY">    28</i>
   <i type="int" name="NGZ">   162</i>
   <i type="int" name="NGXF">    56</i>
   <i type="int" name="NGYF">    56</i>
   <i type="int" name="NGZF">   324</i>
   <i type="logical" name="ADDGRID"> F  </i>
  </separator>
  <separator name="ionic" >
   <i type="int" name="NSW">   300</i>
   <i type="int" name="IBRION">     2</i>
   <i type="int" name="MDALGO">     0</i>
   <i type="int" name="ISIF">     0</i>
   <i name="PSTRESS">      0.00000000</i>
   <i name="EDIFFG">     -0.03000000</i>
   <i type="int" name="NFREE">     1</i>
   <i name="POTIM">      0.50000000</i>
   <i name="SMASS">     -3.00000000</i>
   <i name="SCALEE">      1.00000000</i>
  </separator>
  <separator name="ionic md" >
   <i name="TEBEG">      0.00010000</i>
   <i name="TEEND">      0.00010000</i>
   <i type="int" name="NBLOCK">     1</i>
   <i type="int" name="KBLOCK">   300</i>
   <i type="int" name="NPACO">   256</i>
   <i name="APACO">     16.00000000</i>
  </separator>
  <separator name="symmetry" >
   <i type="int" name="ISYM">     0</i>
   <i name="SYMPREC">      0.00001000</i>
  </separator>
  <separator name="dos" >
   <i type="int" name="LORBIT">    11</i>
   <v name="RWIGS">     -1.00000000</v>
   <i type="int" name="NEDOS">   301</i>
   <i name="EMIN">     10.00000000</i>
   <i name="EMAX">    -10.00000000</i>
   <i name="EFERMI">      0.00000000</i>
  </separator>
  <separator name="writing" >
   <i type="int" name="NWRITE">     2</i>
   <i type="logical" name="LWAVE"> F  </i>
   <i type="logical" name="LDOWNSAMPLE"> F  </i>
   <i type="logical" name="LCHARG"> T  </i>
   <i type="logical" name="LPARD"> F  </i>
   <i type="logical" name="LVTOT"> F  </i>
   <i type="logical" name="LVHAR"> F  </i>
   <i type="logical" name="LELF"> F  </i>
   <i type="logical" name="LOPTICS"> F  </i>
   <v name="STM">      0.00000000      0.00000000      0.00000000      0.00000000      0.00000000      0.00000000      0.00000000</v>
  </separator>
  <separator name="performance" >
   <i type="int" name="NPAR">     4</i>
   <i type="int" name="NSIM">     4</i>
   <i type="int" name="NBLK">    -1</i>
   <i type="logical" name="LPLANE"> T  </i>
   <i type="logical" name="LSCALAPACK"> T  </i>
   <i type="logical" name="LSCAAWARE"> F  </i>
   <i type="logical" name="LSCALU"> F  </i>
   <i type="logical" name="LASYNC"> F  </i>
   <i type="logical" name="LORBITALREAL"> F  </i>
  </separator>
  <separator name="miscellaneous" >
   <i type="int" name="IDIOT">     3</i>
   <i type="int" name="PHON_NSTRUCT">    -1</i>
   <i type="logical" name="LMUSIC"> F  </i>
   <v name="POMASS">    195.08000000</v>
   <v name="DARWINR">      0.00000000</v>
   <v name="DARWINV">      1.00000000</v>
   <i type="logical" name="LCORR"> T  </i>
  </separator>
  <i type="logical" name="GGA_COMPAT"> T  </i>
  <i type="logical" name="LBERRY"> F  </i>
  <i type="int" name="ICORELEVEL">     0</i>
  <i type="logical" name="LDAU"> F  </i>
  <i type="int" name="I_CONSTRAINED_M">     0</i>
  <separator name="electronic exchange-correlation" >
   <i type="string" name="GGA">RP</i>
   <i type="int" name="VOSKOWN">     0</i>
   <i type="logical" name="LHFCALC"> F  </i>
   <i type="string" name="PRECFOCK"></i>
   <i type="logical" name="LSYMGRAD"> F  </i>
   <i type="logical" name="LHFONE"> F  </i>
   <i type="logical" name="LRHFCALC"> F  </i>
   <i type="logical" name="LTHOMAS"> F  </i>
   <i type="logical" name="LMODELHF"> F  </i>
   <i type="logical" name="LFOCKACE"> F  </i>
   <i name="ENCUT4O">     -1.00000000</i>
   <i type="int" name="EXXOEP">     0</i>
   <i type="int" name="FOURORBIT">     0</i>
   <i name="AEXX">      0.00000000</i>
   <i name="HFALPHA">      0.00000000</i>
   <i name="MCALPHA">      0.00000000</i>
   <i name="ALDAX">      1.00000000</i>
   <i name="AGGAX">      1.00000000</i>
   <i name="ALDAC">      1.00000000</i>
   <i name="AGGAC">      1.00000000</i>
   <i type="int" name="NKREDX">     1</i>
   <i type="int" name="NKREDY">     1</i>
   <i type="int" name="NKREDZ">     1</i>
   <i type="logical" name="SHIFTRED"> F  </i>
   <i type="logical" name="ODDONLY"> F  </i>
   <i type="logical" name="EVENONLY"> F  </i>
   <i type="int" name="LMAXFOCK">     0</i>
   <i type="int" name="NMAXFOCKAE">     0</i>
   <i type="logical" name="LFOCKAEDFT"> F  </i>
   <i name="HFSCREEN">      0.00000000</i>
   <i name="HFSCREENC">      0.00000000</i>
   <i type="int" name="NBANDSGWLOW">     0</i>
  </separator>
  <separator name="vdW DFT" >
   <i type="logical" name="LUSE_VDW"> F  </i>
   <i name="Zab_VDW">     -0.84910000</i>
   <i name="PARAM1">      0.12340000</i>
   <i name="PARAM2">      1.00000000</i>
   <i name="PARAM3">      0.00000000</i>
  </separator>
  <separator name="model GW" >
   <i type="int" name="MODEL_GW">     0</i>
   <i name="MODEL_EPS0">     66.50176843</i>
   <i name="MODEL_ALPHA">      1.00000000</i>
  </separator>
  <separator name="linear response parameters" >
   <i type="logical" name="LEPSILON"> F  </i>
   <i type="logical" name="LRPA"> F  </i>
   <i type="logical" name="LNABLA"> F  </i>
   <i type="logical" name="LVEL"> F  </i>
   <i type="int" name="KINTER">     0</i>
   <i name="CSHIFT">      0.10000000</i>
   <i name="OMEGAMAX">     -1.00000000</i>
   <i name="DEG_THRESHOLD">      0.00200000</i>
   <i name="RTIME">     -0.10000000</i>
   <i name="WPLASMAI">      0.00000000</i>
   <v name="DFIELD">      0.00000000      0.00000000      0.00000000</v>
   <v name="WPLASMA">      0.00000000      0.00000000      0.00000000      0.00000000      0.00000000      0.00000000      0.00000000      0.00000000      0.00000000</v>
  </separator>
  <separator name="orbital magnetization" >
   <i type="logical" name="NUCIND"> F  </i>
   <v name="MAGPOS">      0.00000000      0.00000000      0.00000000</v>
   <i type="logical" name="LNICSALL"> T  </i>
   <i type="logical" name="ORBITALMAG"> F  </i>
   <i type="logical" name="LMAGBLOCH"> F  </i>
   <i type="logical" name="LCHIMAG"> F  </i>
   <i type="logical" name="LGAUGE"> T  </i>
   <i type="int" name="MAGATOM">     0</i>
   <v name="MAGDIPOL">      0.00000000      0.00000000      0.00000000</v>
   <v name="AVECCONST">      0.00000000      0.00000000      0.00000000</v>
  </separator>
  <separator name="response functions" >
   <i type="logical" name="LFINITE_TEMPERATURE"> F  </i>
   <i type="logical" name="LADDER"> F  </i>
   <i type="logical" name="LRPAFORCE"> F  </i>
   <i type="logical" name="LFXC"> F  </i>
   <i type="logical" name="LHARTREE"> T  </i>
   <i type="int" name="IBSE">     0</i>
   <v type="int" name="KPOINT">    -1     0     0     0</v>
   <i type="logical" name="LTCTC"> F  </i>
   <i type="logical" name="LTCTE"> F  </i>
   <i type="logical" name="LTETE"> F  </i>
   <i type="logical" name="LTRIPLET"> F  </i>
   <i type="logical" name="LFXCEPS"> F  </i>
   <i type="logical" name="LFXHEG"> F  </i>
   <i type="int" name="NATURALO">     2</i>
   <i type="logical" name="LHOLEGF"> F  </i>
   <i type="logical" name="L2ORDER"> F  </i>
   <i type="logical" name="LDMP1"> F  </i>
   <i type="logical" name="LMP2LT"> F  </i>
   <i type="logical" name="LSMP2LT"> F  </i>
   <i type="logical" name="LGWLF"> F  </i>
   <i name="ENCUTGW">     -2.00000000</i>
   <i name="ENCUTGWSOFT">     -2.00000000</i>
   <i name="ENCUTLF">     -1.00000000</i>
   <i type="logical" name="LESF_SPLINES"> F  </i>
   <i type="int" name="LMAXMP2">    -1</i>
   <i name="SCISSOR">      0.00000000</i>
   <i type="int" name="NOMEGA">     0</i>
   <i type="int" name="NOMEGAR">     0</i>
   <i type="int" name="NBANDSGW">    -1</i>
   <i type="int" name="NBANDSO">    -1</i>
   <i type="int" name="NBANDSV">    -1</i>
   <i type="int" name="NELM">    80</i>
   <i type="int" name="NELMHF">     1</i>
   <i type="int" name="DIM">     3</i>
   <i type="int" name="IESPILON">     4</i>
   <i type="int" name="ANTIRES">     0</i>
   <i name="OMEGAMAX">    -30.00000000</i>
   <i name="OMEGAMIN">    -30.00000000</i>
   <i name="OMEGATL">   -200.00000000</i>
   <i type="int" name="OMEGAGRID">     0</i>
   <i name="CSHIFT">     -0.10000000</i>
   <i type="logical" name="LSELFENERGY"> F  </i>
   <i type="logical" name="LSPECTRAL"> F  </i>
   <i type="logical" name="LSPECTRALGW"> F  </i>
   <i type="logical" name="LSINGLES"> F  </i>
   <i type="logical" name="LFERMIGW"> F  </i>
   <i type="logical" name="ODDONLYGW"> F  </i>
   <i type="logical" name="EVENONLYGW"> F  </i>
   <i type="int" name="NKREDLFX">     1</i>
   <i type="int" name="NKREDLFY">     1</i>
   <i type="int" name="NKREDLFZ">     1</i>
   <i type="int" name="MAXMEM">  2800</i>
   <i type="int" name="TELESCOPE">     0</i>
   <i type="int" name="NTAUPAR">    -1</i>
   <i type="int" name="NOMEGAPAR">    -1</i>
   <i name="DAMP_NEWTON">      0.80000001</i>
   <i name="LAMBDA">      1.00000000</i>
  </separator>
  <separator name="External order field" >
   <i name="OFIELD_KAPPA">      0.00000000</i>
   <v name="OFIELD_K">      0.00000000      0.00000000      0.00000000</v>
   <i name="OFIELD_Q6_NEAR">      0.00000000</i>
   <i name="OFIELD_Q6_FAR">      0.00000000</i>
   <i name="OFIELD_A">      0.00000000</i>
  </separator>
 </parameters>
 <atominfo>
  <atoms>       8 </atoms>
  <types>       1 </types>
  <array name="atoms" >
   <dimension dim="1">ion</dimension>
   <field type="string">element</field>
   <field type="int">atomtype</field>
   <set>
    <rc><c>Pt</c><c>   1</c></rc>
    <rc><c>Pt</c><c>   1</c></rc>
    <rc><c>Pt</c><c>   1</c></rc>
    <rc><c>Pt</c><c>   1</c></rc>
    <rc><c>Pt</c><c>   1</c></rc>
    <rc><c>Pt</c><c>   1</c></rc>
    <rc><c>Pt</c><c>   1</c></rc>
    <rc><c>Pt</c><c>   1</c></rc>
   </set>
  </array>
  <array name="atomtypes" >
   <dimension dim="1">type</dimension>
   <field type="int">atomspertype</field>
   <field type="string">element</field>
   <field>mass</field>
   <field>valence</field>
   <field type="string">pseudopotential</field>
   <set>
    <rc><c>   8</c><c>Pt</c><c>    195.08000000</c><c>     10.00000000</c><c>  PAW_PBE Pt 04Feb2005                  </c></rc>
   </set>
  </array>
 </atominfo>
 <structure name="initialpos" >
  <crystal>
   <varray name="basis" >
    <v>       5.63181200       0.00000000       0.24626200 </v>
    <v>       2.81052200       4.88039700       0.24626200 </v>
    <v>       0.00000000       0.00000000      32.26031700 </v>
   </varray>
   <i name="volume">    886.69024574 </i>
   <varray name="rec_basis" >
    <v>       0.17756275      -0.10225480       0.00000000 </v>
    <v>       0.00000000       0.20490136       0.00000000 </v>
    <v>      -0.00135544      -0.00078356       0.03099784 </v>
   </varray>
  </crystal>
  <varray name="positions" >
   <v>       0.05357100       0.12500000       0.53571400 </v>
   <v>       0.05357100       0.62500000       0.53571400 </v>
   <v>       0.55357100       0.12500000       0.53571400 </v>
   <v>       0.55357100       0.62500000       0.53571400 </v>
   <v>       0.23214300       0.30357100       0.46428600 </v>
   <v>       0.23214300       0.80357100       0.46428600 </v>
   <v>       0.73214300       0.30357100       0.46428600 </v>
   <v>       0.73214300       0.80357100       0.46428600 </v>
  </varray>
  <varray name="selective"  type="logical" >
   <v type="logical" >  T  T  T </v>
   <v type="logical" >  T  T  T </v>
   <v type="logical" >  T  T  T </v>
   <v type="logical" >  T  T  T </v>
   <v type="logical" >  F  F  F </v>
   <v type="logical" >  F  F  F </v>
   <v type="logical" >  F  F  F </v>
   <v type="logical" >  F  F  F </v>
  </varray>
  <nose>
   <v>      -3.00000000       0.00000000       0.00010000       0.00010000 </v>
  </nose>
 </structure>
 <calculation>
  <scstep>
   <time name="dav">    0.75    0.75</time>
   <time name="total">    0.85    0.86</time>
   <energy>
    <i name="alphaZ">     68.61166137 </i>
    <i name="ewald">  36625.54051160 </i>
    <i name="hartreedc"> -42379.57625188 </i>
    <i name="XCdc">     21.28288539 </i>
    <i name="pawpsdc">   5573.64760339 </i>
    <i name="pawaedc">  -5339.66618410 </i>
    <i name="eentropy">     -0.01506591 </i>
    <i name="bandstr">    202.03076160 </i>
    <i name="atom">   5826.55367459 </i>
    <i name="e_fr_energy">    598.40959604 </i>
    <i name="e_wo_entrp">    598.42466195 </i>
    <i name="e_0_energy">    598.41712900 </i>
   </energy>
  </scstep>
  <scstep>
   <time name="dav">    0.99    1.00</time>
   <time name="total">    0.99    1.00</time>
   <energy>
    <i name="e_fr_energy">     42.15587747 </i>
    <i name="e_wo_entrp">     42.16993158 </i>
    <i name="e_0_energy">     42.16290453 </i>
   </energy>
  </scstep>
  <scstep>
   <time name="dav">    0.84    0.84</time>
   <time name="total">    0.84    0.84</time>
   <energy>
    <i name="e_fr_energy">    -38.61614272 </i>
    <i name="e_wo_entrp">    -38.58144322 </i>
    <i name="e_0_energy">    -38.59879297 </i>
   </energy>
  </scstep>
  <scstep>
   <time name="dav">    0.95    0.96</time>
   <time name="total">    0.95    0.96</time>
   <energy>
    <i name="e_fr_energy">    -42.32981691 </i>
    <i name="e_wo_entrp">    -42.29119695 </i>
    <i name="e_0_energy">    -42.31050693 </i>
   </energy>
  </scstep>
  <scstep>
   <time name="dav">    0.89    0.89</time>
   <time name="total">    0.95    0.96</time>
   <energy>
    <i name="e_fr_energy">    -42.44624296 </i>
    <i name="e_wo_entrp">    -42.40762116 </i>
    <i name="e_0_energy">    -42.42693206 </i>
   </energy>
  </scstep>
  <scstep>
   <time name="dav">    0.83    0.83</time>
   <time name="total">    0.99    1.00</time>
   <energy>
    <i name="e_fr_energy">    -41.09415076 </i>
    <i name="e_wo_entrp">    -41.05557789 </i>
    <i name="e_0_energy">    -41.07486432 </i>
   </energy>
  </scstep>
  <scstep>
   <time name="dav">    0.79    0.79</time>
   <time name="total">    0.94    0.95</time>
   <energy>
    <i name="e_fr_energy">    -40.63595927 </i>
    <i name="e_wo_entrp">    -40.59743023 </i>
    <i name="e_0_energy">    -40.61669475 </i>
   </energy>
  </scstep>
  <scstep>
   <time name="dav">    0.78    0.78</time>
   <time name="total">    0.93    0.94</time>
   <energy>
    <i name="e_fr_energy">    -40.52586301 </i>
    <i name="e_wo_entrp">    -40.49222651 </i>
    <i name="e_0_energy">    -40.50904476 </i>
   </energy>
  </scstep>
  <scstep>
   <time name="dav">    0.78    0.78</time>
   <time name="total">    0.94    0.94</time>
   <energy>
    <i name="e_fr_energy">    -40.47377694 </i>
    <i name="e_wo_entrp">    -40.44095947 </i>
    <i name="e_0_energy">    -40.45736821 </i>
   </energy>
  </scstep>
  <scstep>
   <time name="dav">    0.78    0.78</time>
   <time name="total">    0.94    0.94</time>
   <energy>
    <i name="e_fr_energy">    -40.44466733 </i>
    <i name="e_wo_entrp">    -40.40633479 </i>
    <i name="e_0_energy">    -40.42550106 </i>
   </energy>
  </scstep>
  <scstep>
   <time name="dav">    0.79    0.80</time>
   <time name="total">    0.96    0.96</time>
   <energy>
    <i name="e_fr_energy">    -40.44420395 </i>
    <i name="e_wo_entrp">    -40.40573482 </i>
    <i name="e_0_energy">    -40.42496938 </i>
   </energy>
  </scstep>
  <scstep>
   <time name="dav">    0.78    0.79</time>
   <time name="total">    0.94    0.95</time>
   <energy>
    <i name="e_fr_energy">    -40.44380706 </i>
    <i name="e_wo_entrp">    -40.40525059 </i>
    <i name="e_0_energy">    -40.42452882 </i>
   </energy>
  </scstep>
  <scstep>
   <time name="dav">    0.77    0.77</time>
   <time name="total">    0.93    0.93</time>
   <energy>
    <i name="e_fr_energy">    -40.44368579 </i>
    <i name="e_wo_entrp">    -40.40511808 </i>
    <i name="e_0_energy">    -40.42440194 </i>
   </energy>
  </scstep>
  <scstep>
   <time name="dav">    0.47    0.48</time>
   <time name="total">    0.57    0.57</time>
   <energy>
    <i name="alphaZ">     68.61166137 </i>
    <i name="ewald">  36625.54051160 </i>
    <i name="hartreedc"> -42339.91836858 </i>
    <i name="XCdc">     19.40626647 </i>
    <i name="pawpsdc">   6775.23348772 </i>
    <i name="pawaedc">  -6557.85428102 </i>
    <i name="eentropy">     -0.03857051 </i>
    <i name="bandstr">   -457.97806590 </i>
    <i name="atom">   5826.55367459 </i>
    <i name="e_fr_energy">    -40.44368426 </i>
    <i name="e_wo_entrp">    -40.40511375 </i>
    <i name="e_0_energy">    -40.42439900 </i>
   </energy>
  </scstep>
  <structure>
   <crystal>
    <varray name="basis" >
     <v>       5.63181200       0.00000000       0.24626200 </v>
     <v>       2.81052200       4.88039700       0.24626200 </v>
     <v>       0.00000000       0.00000000      32.26031700 </v>
    </varray>
    <i name="volume">    886.69024574 </i>
    <varray name="rec_basis" >
     <v>       0.17756275      -0.10225480       0.00000000 </v>
     <v>       0.00000000       0.20490136       0.00000000 </v>
     <v>      -0.00135544      -0.00078356       0.03099784 </v>
    </varray>
   </crystal>
   <varray name="positions" >
    <v>       0.05357100       0.12500000       0.53571400 </v>
    <v>       0.05357100       0.62500000       0.53571400 </v>
    <v>       0.55357100       0.12500000       0.53571400 </v>
    <v>       0.55357100       0.62500000       0.53571400 </v>
    <v>       0.23214300       0.30357100       0.46428600 </v>
    <v>       0.23214300       0.80357100       0.46428600 </v>
    <v>       0.73214300       0.30357100       0.46428600 </v>
    <v>       0.73214300       0.80357100       0.46428600 </v>
   </varray>
  </structure>
  <varray name="forces" >
   <v>       0.02872605       0.01670215       0.55827374 </v>
   <v>       0.02847064       0.01687621       0.55690387 </v>
   <v>       0.02867214       0.01637643       0.55840059 </v>
   <v>       0.02896097       0.01685675       0.55838220 </v>
   <v>      -0.02858505      -0.01642894      -0.55860550 </v>
   <v>      -0.02883507      -0.01692965      -0.55864028 </v>
   <v>      -0.02883115      -0.01663212      -0.55821680 </v>
   <v>      -0.02857852      -0.01682084      -0.55649782 </v>
  </varray>
  <energy>
   <i name="e_fr_energy">    -40.44368426 </i>
   <i name="e_wo_entrp">    -40.40511375 </i>
   <i name="e_0_energy">    -40.42439900 </i>
  </energy>
  <time name="totalsc">   14.23   14.32</time>
 </calculation>
 <calculation>
  <scstep>
   <time name="dav">    0.71    0.72</time>
   <time name="total">    0.87    0.88</time>
   <energy>
    <i name="alphaZ">     68.61166137 </i>
    <i name="ewald">  36505.87543844 </i>
    <i name="hartreedc"> -42221.38191313 </i>
    <i name="XCdc">     19.19786578 </i>
    <i name="pawpsdc">   6776.22094172 </i>
    <i name="pawaedc">  -6558.83824751 </i>
    <i name="eentropy">     -0.03856816 </i>
    <i name="bandstr">   -456.68556327 </i>
    <i name="atom">   5826.55367459 </i>
    <i name="e_fr_energy">    -40.48471016 </i>
    <i name="e_wo_entrp">    -40.44614200 </i>
    <i name="e_0_energy">    -40.46542608 </i>
   </energy>
  </scstep>
  <scstep>
   <time name="dav">    0.75    0.76</time>
   <time name="total">    0.91    0.91</time>
   <energy>
    <i name="e_fr_energy">    -40.50603268 </i>
    <i name="e_wo_entrp">    -40.46746678 </i>
    <i name="e_0_energy">    -40.48674973 </i>
   </energy>
  </scstep>
  <scstep>
   <time name="dav">    0.76    0.77</time>
   <time name="total">    0.92    0.93</time>
   <energy>
    <i name="e_fr_energy">    -40.50756403 </i>
    <i name="e_wo_entrp">    -40.46901474 </i>
    <i name="e_0_energy">    -40.48828938 </i>
   </energy>
  </scstep>
  <scstep>
   <time name="dav">    0.74    0.75</time>
   <time name="total">    0.90    0.90</time>
   <energy>
    <i name="e_fr_energy">    -40.50377045 </i>
    <i name="e_wo_entrp">    -40.46520930 </i>
    <i name="e_0_energy">    -40.48448988 </i>
   </energy>
  </scstep>
  <scstep>
   <time name="dav">    0.76    0.76</time>
   <time name="total">    0.92    0.92</time>
   <energy>
    <i name="e_fr_energy">    -40.50443500 </i>
    <i name="e_wo_entrp">    -40.46588505 </i>
    <i name="e_0_energy">    -40.48516003 </i>
   </energy>
  </scstep>
  <scstep>
   <time name="dav">    0.78    0.78</time>
   <time name="total">    0.94    0.94</time>
   <energy>
    <i name="e_fr_energy">    -40.50349548 </i>
    <i name="e_wo_entrp">    -40.46502075 </i>
    <i name="e_0_energy">    -40.48425812 </i>
   </energy>
  </scstep>
  <scstep>
   <time name="dav">    0.75    0.75</time>
   <time name="total">    0.90    0.91</time>
   <energy>
    <i name="e_fr_energy">    -40.50318185 </i>
    <i name="e_wo_entrp">    -40.46461516 </i>
    <i name="e_0_energy">    -40.48389851 </i>
   </energy>
  </scstep>
  <scstep>
   <time name="dav">    0.51    0.51</time>
   <time name="total">    0.61    0.61</time>
   <energy>
    <i name="alphaZ">     68.61166137 </i>
    <i name="ewald">  36505.87543844 </i>
    <i name="hartreedc"> -42221.57929904 </i>
    <i name="XCdc">     19.19952324 </i>
    <i name="pawpsdc">   6736.84255715 </i>
    <i name="pawaedc">  -6519.23809684 </i>
    <i name="eentropy">     -0.03857015 </i>
    <i name="bandstr">   -456.73005143 </i>
    <i name="atom">   5826.55367459 </i>
    <i name="e_fr_energy">    -40.50316267 </i>
    <i name="e_wo_entrp">    -40.46459252 </i>
    <i name="e_0_energy">    -40.48387760 </i>
   </energy>
  </scstep>
  <structure>
   <crystal>
    <varray name="basis" >
     <v>       5.63181200       0.00000000       0.24626200 </v>
     <v>       2.81052200       4.88039700       0.24626200 </v>
     <v>       0.00000000       0.00000000      32.26031700 </v>
    </varray>
    <i name="volume">    886.69024574 </i>
    <varray name="rec_basis" >
     <v>       0.17756275      -0.10225480       0.00000000 </v>
     <v>       0.00000000       0.20490136       0.00000000 </v>
     <v>      -0.00135544      -0.00078356       0.03099784 </v>
    </varray>
   </crystal>
   <varray name="positions" >
    <v>       0.05373468       0.12516510       0.53654634 </v>
    <v>       0.05373163       0.62516682       0.53654430 </v>
    <v>       0.55373582       0.12516188       0.53654655 </v>
    <v>       0.55373593       0.62516663       0.53654648 </v>
    <v>       0.23214300       0.30357100       0.46428600 </v>
    <v>       0.23214300       0.80357100       0.46428600 </v>
    <v>       0.73214300       0.30357100       0.46428600 </v>
    <v>       0.73214300       0.80357100       0.46428600 </v>
   </varray>
  </structure>
  <varray name="forces" >
   <v>       0.02081343       0.01220895       0.46403916 </v>
   <v>       0.02134839       0.01219092       0.46465535 </v>
   <v>       0.02154712       0.01220545       0.46492882 </v>
   <v>       0.02114933       0.01329439       0.46628106 </v>
   <v>      -0.02140828      -0.01232731      -0.46528803 </v>
   <v>      -0.02145299      -0.01233400      -0.46528211 </v>
   <v>      -0.02104413      -0.01267484      -0.46400931 </v>
   <v>      -0.02095287      -0.01256357      -0.46532494 </v>
  </varray>
  <energy>
   <i name="e_fr_energy">    -40.50316267 </i>
   <i name="e_wo_entrp">    -40.46459252 </i>
   <i name="e_0_energy">    -40.48387760 </i>
  </energy>
  <time name="totalsc">    7.56    7.94</time>
 </calculation>
 <calculation>
  <scstep>
   <time name="dav">    0.72    0.72</time>
   <time name="total">    0.87    0.88</time>
   <energy>
    <i name="alphaZ">     68.61166137 </i>
    <i name="ewald">  36147.88686112 </i>
    <i name="hartreedc"> -41866.75375869 </i>
    <i name="XCdc">     18.61688344 </i>
    <i name="pawpsdc">   6736.47841652 </i>
    <i name="pawaedc">  -6518.87076556 </i>
    <i name="eentropy">     -0.03857042 </i>
    <i name="bandstr">   -452.93098090 </i>
    <i name="atom">   5826.55367459 </i>
    <i name="e_fr_energy">    -40.44657852 </i>
    <i name="e_wo_entrp">    -40.40800811 </i>
    <i name="e_0_energy">    -40.42729332 </i>
   </energy>
  </scstep>
  <scstep>
   <time name="dav">    0.75    0.75</time>
   <time name="total">    0.90    0.91</time>
   <energy>
    <i name="e_fr_energy">    -40.63255167 </i>
    <i name="e_wo_entrp">    -40.59397545 </i>
    <i name="e_0_energy">    -40.61326356 </i>
   </energy>
  </scstep>
  <scstep>
   <time name="dav">    0.76    0.76</time>
   <time name="total">    0.91    0.91</time>
   <energy>
    <i name="e_fr_energy">    -40.63138981 </i>
    <i name="e_wo_entrp">    -40.59276957 </i>
    <i name="e_0_energy">    -40.61207969 </i>
   </energy>
  </scstep>
  <scstep>
   <time name="dav">    0.73    0.74</time>
   <time name="total">    0.89    0.90</time>
   <energy>
    <i name="e_fr_energy">    -40.61775939 </i>
    <i name="e_wo_entrp">    -40.57914957 </i>
    <i name="e_0_energy">    -40.59845448 </i>
   </energy>
  </scstep>
  <scstep>
   <time name="dav">    0.74    0.75</time>
   <time name="total">    0.90    0.91</time>
   <energy>
    <i name="e_fr_energy">    -40.61476908 </i>
    <i name="e_wo_entrp">    -40.57617130 </i>
    <i name="e_0_energy">    -40.59547019 </i>
   </energy>
  </scstep>
  <scstep>
   <time name="dav">    0.72    0.72</time>
   <time name="total">    0.87    0.88</time>
   <energy>
    <i name="e_fr_energy">    -40.60834853 </i>
    <i name="e_wo_entrp">    -40.56998324 </i>
    <i name="e_0_energy">    -40.58916589 </i>
   </energy>
  </scstep>
  <scstep>
   <time name="dav">    0.85    0.85</time>
   <time name="total">    1.00    1.00</time>
   <energy>
    <i name="e_fr_energy">    -40.60775163 </i>
    <i name="e_wo_entrp">    -40.56917638 </i>
    <i name="e_0_energy">    -40.58846401 </i>
   </energy>
  </scstep>
  <scstep>
   <time name="dav">    0.80    0.80</time>
   <time name="total">    0.96    0.96</time>
   <energy>
    <i name="e_fr_energy">    -40.60737910 </i>
    <i name="e_wo_entrp">    -40.56878166 </i>
    <i name="e_0_energy">    -40.58808038 </i>
   </energy>
  </scstep>
  <scstep>
   <time name="dav">    0.73    0.74</time>
   <time name="total">    0.89    0.90</time>
   <energy>
    <i name="e_fr_energy">    -40.60709710 </i>
    <i name="e_wo_entrp">    -40.56850359 </i>
    <i name="e_0_energy">    -40.58780034 </i>
   </energy>
  </scstep>
  <scstep>
   <time name="dav">    0.50    0.50</time>
   <time name="total">    0.60    0.60</time>
   <energy>
    <i name="alphaZ">     68.61166137 </i>
    <i name="ewald">  36147.88686112 </i>
    <i name="hartreedc"> -41867.73031465 </i>
    <i name="XCdc">     18.63222916 </i>
    <i name="pawpsdc">   6642.24852837 </i>
    <i name="pawaedc">  -6424.05415074 </i>
    <i name="eentropy">     -0.03859539 </i>
    <i name="bandstr">   -452.71695154 </i>
    <i name="atom">   5826.55367459 </i>
    <i name="e_fr_energy">    -40.60705770 </i>
    <i name="e_wo_entrp">    -40.56846231 </i>
    <i name="e_0_energy">    -40.58776000 </i>
   </energy>
  </scstep>
  <structure>
   <crystal>
    <varray name="basis" >
     <v>       5.63181200       0.00000000       0.24626200 </v>
     <v>       2.81052200       4.88039700       0.24626200 </v>
     <v>       0.00000000       0.00000000      32.26031700 </v>
    </varray>
    <i name="volume">    886.69024574 </i>
    <varray name="rec_basis" >
     <v>       0.17756275      -0.10225480       0.00000000 </v>
     <v>       0.00000000       0.20490136       0.00000000 </v>
     <v>      -0.00135544      -0.00078356       0.03099784 </v>
    </varray>
   </crystal>
   <varray name="positions" >
    <v>       0.05422571       0.12566040       0.53904337 </v>
    <v>       0.05421352       0.62566728       0.53903522 </v>
    <v>       0.55423029       0.12564752       0.53904419 </v>
    <v>       0.55423071       0.62566651       0.53904394 </v>
    <v>       0.23214300       0.30357100       0.46428600 </v>
    <v>       0.23214300       0.80357100       0.46428600 </v>
    <v>       0.73214300       0.30357100       0.46428600 </v>
    <v>       0.73214300       0.80357100       0.46428600 </v>
   </varray>
  </structure>
  <varray name="forces" >
   <v>       0.03587555       0.02047175       0.03198808 </v>
   <v>       0.03440447       0.02031449       0.03423976 </v>
   <v>       0.03565608       0.02147845       0.02908115 </v>
   <v>       0.03524272       0.02019774       0.02974937 </v>
   <v>      -0.03505939      -0.02083263      -0.03041378 </v>
   <v>      -0.03506779      -0.02081558      -0.02976668 </v>
   <v>      -0.03547346      -0.02043779      -0.03255378 </v>
   <v>      -0.03557817      -0.02037642      -0.03232410 </v>
  </varray>
  <energy>
   <i name="e_fr_energy">    -40.60705770 </i>
   <i name="e_wo_entrp">    -40.56846231 </i>
   <i name="e_0_energy">    -40.58776000 </i>
  </energy>
  <time name="totalsc">    9.39    9.45</time>
 </calculation>
 <calculation>
  <scstep>
   <time name="dav">    0.72    0.73</time>
   <time name="total">    0.89    0.89</time>
   <energy>
    <i name="alphaZ">     68.61166137 </i>
    <i name="ewald">  36120.07798933 </i>
    <i name="hartreedc"> -41840.12222864 </i>
    <i name="XCdc">     18.58868804 </i>
    <i name="pawpsdc">   6642.10190935 </i>
    <i name="pawaedc">  -6423.90777030 </i>
    <i name="eentropy">     -0.03860332 </i>
    <i name="bandstr">   -452.47684258 </i>
    <i name="atom">   5826.55367459 </i>
    <i name="e_fr_energy">    -40.61152216 </i>
    <i name="e_wo_entrp">    -40.57291884 </i>
    <i name="e_0_energy">    -40.59222050 </i>
   </energy>
  </scstep>
  <scstep>
   <time name="dav">    0.74    0.75</time>
   <time name="total">    0.90    0.91</time>
   <energy>
    <i name="e_fr_energy">    -40.61269729 </i>
    <i name="e_wo_entrp">    -40.57409512 </i>
    <i name="e_0_energy">    -40.59339620 </i>
   </energy>
  </scstep>
  <scstep>
   <time name="dav">    0.77    0.77</time>
   <time name="total">    0.93    0.93</time>
   <energy>
    <i name="e_fr_energy">    -40.61265982 </i>
    <i name="e_wo_entrp">    -40.57405908 </i>
    <i name="e_0_energy">    -40.59335945 </i>
   </energy>
  </scstep>
  <scstep>
   <time name="dav">    0.60    0.61</time>
   <time name="total">    0.76    0.76</time>
   <energy>
    <i name="e_fr_energy">    -40.61253991 </i>
    <i name="e_wo_entrp">    -40.57393500 </i>
    <i name="e_0_energy">    -40.59323745 </i>
   </energy>
  </scstep>
  <scstep>
   <time name="dav">    0.78    0.79</time>
   <time name="total">    0.94    0.95</time>
   <energy>
    <i name="e_fr_energy">    -40.61265593 </i>
    <i name="e_wo_entrp">    -40.57405619 </i>
    <i name="e_0_energy">    -40.59335606 </i>
   </energy>
  </scstep>
  <scstep>
   <time name="dav">    0.57    0.57</time>
   <time name="total">    0.67    0.67</time>
   <energy>
    <i name="alphaZ">     68.61166137 </i>
    <i name="ewald">  36120.07798933 </i>
    <i name="hartreedc"> -41840.39757512 </i>
    <i name="XCdc">     18.58834752 </i>
    <i name="pawpsdc">   6635.46538738 </i>
    <i name="pawaedc">  -6417.23238294 </i>
    <i name="eentropy">     -0.03860470 </i>
    <i name="bandstr">   -452.24106628 </i>
    <i name="atom">   5826.55367459 </i>
    <i name="e_fr_energy">    -40.61256886 </i>
    <i name="e_wo_entrp">    -40.57396416 </i>
    <i name="e_0_energy">    -40.59326651 </i>
   </energy>
  </scstep>
  <structure>
   <crystal>
    <varray name="basis" >
     <v>       5.63181200       0.00000000       0.24626200 </v>
     <v>       2.81052200       4.88039700       0.24626200 </v>
     <v>       0.00000000       0.00000000      32.26031700 </v>
    </varray>
    <i name="volume">    886.69024574 </i>
    <varray name="rec_basis" >
     <v>       0.17756275      -0.10225480       0.00000000 </v>
     <v>       0.00000000       0.20490136       0.00000000 </v>
     <v>      -0.00135544      -0.00078356       0.03099784 </v>
    </varray>
   </crystal>
   <varray name="positions" >
    <v>       0.05426394       0.12569897       0.53923780 </v>
    <v>       0.05425105       0.62570625       0.53922917 </v>
    <v>       0.55426879       0.12568534       0.53923867 </v>
    <v>       0.55426924       0.62570544       0.53923840 </v>
    <v>       0.23214300       0.30357100       0.46428600 </v>
    <v>       0.23214300       0.80357100       0.46428600 </v>
    <v>       0.73214300       0.30357100       0.46428600 </v>
    <v>       0.73214300       0.80357100       0.46428600 </v>
   </varray>
  </structure>
  <varray name="forces" >
   <v>       0.03410898       0.01932548      -0.00478087 </v>
   <v>       0.03620212       0.01954818      -0.00272891 </v>
   <v>       0.03437709       0.02120320      -0.00863401 </v>
   <v>       0.03279214       0.01937303      -0.00680457 </v>
   <v>      -0.03367185      -0.02026785       0.00542822 </v>
   <v>      -0.03414036      -0.02010189       0.00780254 </v>
   <v>      -0.03502430      -0.01985429       0.00540737 </v>
   <v>      -0.03464383      -0.01922585       0.00431023 </v>
  </varray>
  <energy>
   <i name="e_fr_energy">    -40.61256886 </i>
   <i name="e_wo_entrp">    -40.57396416 </i>
   <i name="e_0_energy">    -40.59326651 </i>
  </energy>
  <time name="totalsc">    5.66    5.70</time>
 </calculation>
 <calculation>
  <scstep>
   <time name="dav">    0.72    0.73</time>
   <time name="total">    0.88    0.88</time>
   <energy>
    <i name="alphaZ">     68.61166137 </i>
    <i name="ewald">  36122.61071728 </i>
    <i name="hartreedc"> -41842.72093745 </i>
    <i name="XCdc">     18.59215085 </i>
    <i name="pawpsdc">   6635.46593977 </i>
    <i name="pawaedc">  -6417.23289952 </i>
    <i name="eentropy">     -0.03860547 </i>
    <i name="bandstr">   -452.45380123 </i>
    <i name="atom">   5826.55367459 </i>
    <i name="e_fr_energy">    -40.61209981 </i>
    <i name="e_wo_entrp">    -40.57349434 </i>
    <i name="e_0_energy">    -40.59279708 </i>
   </energy>
  </scstep>
  <scstep>
   <time name="dav">    0.47    0.47</time>
   <time name="total">    0.63    0.63</time>
   <energy>
    <i name="e_fr_energy">    -40.61210526 </i>
    <i name="e_wo_entrp">    -40.57350040 </i>
    <i name="e_0_energy">    -40.59280283 </i>
   </energy>
  </scstep>
  <scstep>
   <time name="dav">    0.46    0.46</time>
   <time name="total">    0.62    0.62</time>
   <energy>
    <i name="e_fr_energy">    -40.61210065 </i>
    <i name="e_wo_entrp">    -40.57349552 </i>
    <i name="e_0_energy">    -40.59279809 </i>
   </energy>
  </scstep>
  <scstep>
   <time name="dav">    0.46    0.46</time>
   <time name="total">    0.55    0.56</time>
   <energy>
    <i name="alphaZ">     68.61166137 </i>
    <i name="ewald">  36122.61071728 </i>
    <i name="hartreedc"> -41842.68707515 </i>
    <i name="XCdc">     18.59271087 </i>
    <i name="pawpsdc">   6635.63116320 </i>
    <i name="pawaedc">  -6417.39869184 </i>
    <i name="eentropy">     -0.03860494 </i>
    <i name="bandstr">   -452.48765500 </i>
    <i name="atom">   5826.55367459 </i>
    <i name="e_fr_energy">    -40.61209961 </i>
    <i name="e_wo_entrp">    -40.57349467 </i>
    <i name="e_0_energy">    -40.59279714 </i>
   </energy>
  </scstep>
  <structure>
   <crystal>
    <varray name="basis" >
     <v>       5.63181200       0.00000000       0.24626200 </v>
     <v>       2.81052200       4.88039700       0.24626200 </v>
     <v>       0.00000000       0.00000000      32.26031700 </v>
    </varray>
    <i name="volume">    886.69024574 </i>
    <varray name="rec_basis" >
     <v>       0.17756275      -0.10225480       0.00000000 </v>
     <v>       0.00000000       0.20490136       0.00000000 </v>
     <v>      -0.00135544      -0.00078356       0.03099784 </v>
    </varray>
   </crystal>
   <varray name="positions" >
    <v>       0.05426046       0.12569546       0.53922009 </v>
    <v>       0.05424763       0.62570270       0.53921150 </v>
    <v>       0.55426529       0.12568189       0.53922096 </v>
    <v>       0.55426573       0.62570189       0.53922068 </v>
    <v>       0.23214300       0.30357100       0.46428600 </v>
    <v>       0.23214300       0.80357100       0.46428600 </v>
    <v>       0.73214300       0.30357100       0.46428600 </v>
    <v>       0.73214300       0.80357100       0.46428600 </v>
   </varray>
  </structure>
  <varray name="forces" >
   <v>       0.03447311       0.02006606      -0.00136806 </v>
   <v>       0.03593629       0.01964107       0.00186616 </v>
   <v>       0.03475687       0.02119814      -0.00193955 </v>
   <v>       0.03378816       0.01938608      -0.00153022 </v>
   <v>      -0.03461608      -0.02031196       0.00051966 </v>
   <v>      -0.03454422      -0.02003254       0.00116711 </v>
   <v>      -0.03488519      -0.02008547       0.00153077 </v>
   <v>      -0.03490894      -0.01986138      -0.00024587 </v>
  </varray>
  <energy>
   <i name="e_fr_energy">    -40.61209961 </i>
   <i name="e_wo_entrp">    -40.57349467 </i>
   <i name="e_0_energy">    -40.59279714 </i>
  </energy>
  <time name="totalsc">    3.26    3.33</time>
 </calculation>
 <calculation>
  <scstep>
   <time name="dav">    0.70    0.70</time>
   <time name="total">    0.86    0.87</time>
   <energy>
    <i name="alphaZ">     68.61166137 </i>
    <i name="ewald">  36121.78176701 </i>
    <i name="hartreedc"> -41841.87474612 </i>
    <i name="XCdc">     18.59174547 </i>
    <i name="pawpsdc">   6635.72439900 </i>
    <i name="pawaedc">  -6417.49223449 </i>
    <i name="eentropy">     -0.03860507 </i>
    <i name="bandstr">   -452.46990615 </i>
    <i name="atom">   5826.55367459 </i>
    <i name="e_fr_energy">    -40.61224440 </i>
    <i name="e_wo_entrp">    -40.57363932 </i>
    <i name="e_0_energy">    -40.59294186 </i>
   </energy>
  </scstep>
  <scstep>
   <time name="dav">    0.46    0.46</time>
   <time name="total">    0.62    0.62</time>
   <energy>
    <i name="e_fr_energy">    -40.61224593 </i>
    <i name="e_wo_entrp">    -40.57364112 </i>
    <i name="e_0_energy">    -40.59294353 </i>
   </energy>
  </scstep>
  <scstep>
   <time name="dav">    0.46    0.46</time>
   <time name="total">    0.61    0.62</time>
   <energy>
    <i name="e_fr_energy">    -40.61224486 </i>
    <i name="e_wo_entrp">    -40.57363950 </i>
    <i name="e_0_energy">    -40.59294218 </i>
   </energy>
  </scstep>
  <scstep>
   <time name="dav">    0.46    0.46</time>
   <time name="total">    0.56    0.56</time>
   <energy>
    <i name="alphaZ">     68.61166137 </i>
    <i name="ewald">  36121.78176701 </i>
    <i name="hartreedc"> -41841.92595455 </i>
    <i name="XCdc">     18.59188521 </i>
    <i name="pawpsdc">   6635.70382063 </i>
    <i name="pawaedc">  -6417.47154641 </i>
    <i name="eentropy">     -0.03860546 </i>
    <i name="bandstr">   -452.41894743 </i>
    <i name="atom">   5826.55367459 </i>
    <i name="e_fr_energy">    -40.61224505 </i>
    <i name="e_wo_entrp">    -40.57363959 </i>
    <i name="e_0_energy">    -40.59294232 </i>
   </energy>
  </scstep>
  <structure>
   <crystal>
    <varray name="basis" >
     <v>       5.63181200       0.00000000       0.24626200 </v>
     <v>       2.81052200       4.88039700       0.24626200 </v>
     <v>       0.00000000       0.00000000      32.26031700 </v>
    </varray>
    <i name="volume">    886.69024574 </i>
    <varray name="rec_basis" >
     <v>       0.17756275      -0.10225480       0.00000000 </v>
     <v>       0.00000000       0.20490136       0.00000000 </v>
     <v>      -0.00135544      -0.00078356       0.03099784 </v>
    </varray>
   </crystal>
   <varray name="positions" >
    <v>       0.05426160       0.12569661       0.53922589 </v>
    <v>       0.05424875       0.62570386       0.53921729 </v>
    <v>       0.55426643       0.12568302       0.53922675 </v>
    <v>       0.55426687       0.62570305       0.53922648 </v>
    <v>       0.23214300       0.30357100       0.46428600 </v>
    <v>       0.23214300       0.80357100       0.46428600 </v>
    <v>       0.73214300       0.30357100       0.46428600 </v>
    <v>       0.73214300       0.80357100       0.46428600 </v>
   </varray>
  </structure>
  <varray name="forces" >
   <v>       0.03421988       0.01993336      -0.00419042 </v>
   <v>       0.03563069       0.01949833      -0.00096530 </v>
   <v>       0.03445534       0.02098592      -0.00446165 </v>
   <v>       0.03357188       0.01924935      -0.00445425 </v>
   <v>      -0.03438602      -0.02015073       0.00339061 </v>
   <v>      -0.03424303      -0.01985592       0.00354377 </v>
   <v>      -0.03456895      -0.01990430       0.00404783 </v>
   <v>      -0.03467978      -0.01975599       0.00308942 </v>
  </varray>
  <energy>
   <i name="e_fr_energy">    -40.61224505 </i>
   <i name="e_wo_entrp">    -40.57363959 </i>
   <i name="e_0_energy">    -40.59294232 </i>
  </energy>
  <time name="totalsc">    3.22    3.25</time>
 </calculation>
 <calculation>
  <scstep>
   <time name="dav">    0.50    0.50</time>
   <time name="total">    0.66    0.67</time>
   <energy>
    <i name="alphaZ">     68.61166137 </i>
    <i name="ewald">  36122.12316392 </i>
    <i name="hartreedc"> -41842.26608500 </i>
    <i name="XCdc">     18.59241177 </i>
    <i name="pawpsdc">   6635.69891191 </i>
    <i name="pawaedc">  -6417.46663354 </i>
    <i name="eentropy">     -0.03860537 </i>
    <i name="bandstr">   -452.42068305 </i>
    <i name="atom">   5826.55367459 </i>
    <i name="e_fr_energy">    -40.61218341 </i>
    <i name="e_wo_entrp">    -40.57357803 </i>
    <i name="e_0_energy">    -40.59288072 </i>
   </energy>
  </scstep>
  <scstep>
   <time name="dav">    0.46    0.46</time>
   <time name="total">    0.61    0.62</time>
   <energy>
    <i name="e_fr_energy">    -40.61218445 </i>
    <i name="e_wo_entrp">    -40.57357908 </i>
    <i name="e_0_energy">    -40.59288177 </i>
   </energy>
  </scstep>
  <scstep>
   <time name="dav">    0.46    0.47</time>
   <time name="total">    0.62    0.63</time>
   <energy>
    <i name="e_fr_energy">    -40.61218467 </i>
    <i name="e_wo_entrp">    -40.57357932 </i>
    <i name="e_0_energy">    -40.59288200 </i>
   </energy>
  </scstep>
  <scstep>
   <time name="dav">    0.47    0.47</time>
   <time name="total">    0.56    0.57</time>
   <energy>
    <i name="alphaZ">     68.61166137 </i>
    <i name="ewald">  36122.12316392 </i>
    <i name="hartreedc"> -41842.26133370 </i>
    <i name="XCdc">     18.59233916 </i>
    <i name="pawpsdc">   6635.71268377 </i>
    <i name="pawaedc">  -6417.48057701 </i>
    <i name="eentropy">     -0.03860534 </i>
    <i name="bandstr">   -452.42519150 </i>
    <i name="atom">   5826.55367459 </i>
    <i name="e_fr_energy">    -40.61218474 </i>
    <i name="e_wo_entrp">    -40.57357940 </i>
    <i name="e_0_energy">    -40.59288207 </i>
   </energy>
  </scstep>
  <structure>
   <crystal>
    <varray name="basis" >
     <v>       5.63181200       0.00000000       0.24626200 </v>
     <v>       2.81052200       4.88039700       0.24626200 </v>
     <v>       0.00000000       0.00000000      32.26031700 </v>
    </varray>
    <i name="volume">    886.69024574 </i>
    <varray name="rec_basis" >
     <v>       0.17756275      -0.10225480       0.00000000 </v>
     <v>       0.00000000       0.20490136       0.00000000 </v>
     <v>      -0.00135544      -0.00078356       0.03099784 </v>
    </varray>
   </crystal>
   <varray name="positions" >
    <v>       0.05426113       0.12569613       0.53922350 </v>
    <v>       0.05424829       0.62570339       0.53921490 </v>
    <v>       0.55426596       0.12568256       0.53922437 </v>
    <v>       0.55426640       0.62570258       0.53922409 </v>
    <v>       0.23214300       0.30357100       0.46428600 </v>
    <v>       0.23214300       0.80357100       0.46428600 </v>
    <v>       0.73214300       0.30357100       0.46428600 </v>
    <v>       0.73214300       0.80357100       0.46428600 </v>
   </varray>
  </structure>
  <varray name="forces" >
   <v>       0.03435487       0.02001282      -0.00203963 </v>
   <v>       0.03574775       0.01957513       0.00122930 </v>
   <v>       0.03457939       0.02104819      -0.00209726 </v>
   <v>       0.03372266       0.01933625      -0.00228516 </v>
   <v>      -0.03452913      -0.02022412       0.00120871 </v>
   <v>      -0.03436990      -0.01992894       0.00119217 </v>
   <v>      -0.03468749      -0.01997385       0.00173676 </v>
   <v>      -0.03481815      -0.01984549       0.00105513 </v>
  </varray>
  <energy>
   <i name="e_fr_energy">    -40.61218474 </i>
   <i name="e_wo_entrp">    -40.57357940 </i>
   <i name="e_0_energy">    -40.59288207 </i>
  </energy>
  <time name="totalsc">    3.03    3.22</time>
 </calculation>
 <calculation>
  <scstep>
   <time name="dav">    0.46    0.47</time>
   <time name="total">    0.62    0.62</time>
   <energy>
    <i name="alphaZ">     68.61166137 </i>
    <i name="ewald">  36121.95798879 </i>
    <i name="hartreedc"> -41842.09736774 </i>
    <i name="XCdc">     18.59208249 </i>
    <i name="pawpsdc">   6635.71435059 </i>
    <i name="pawaedc">  -6417.48225675 </i>
    <i name="eentropy">     -0.03860539 </i>
    <i name="bandstr">   -452.42374164 </i>
    <i name="atom">   5826.55367459 </i>
    <i name="e_fr_energy">    -40.61221369 </i>
    <i name="e_wo_entrp">    -40.57360830 </i>
    <i name="e_0_energy">    -40.59291100 </i>
   </energy>
  </scstep>
  <scstep>
   <time name="dav">    0.46    0.46</time>
   <time name="total">    0.62    0.62</time>
   <energy>
    <i name="e_fr_energy">    -40.61221390 </i>
    <i name="e_wo_entrp">    -40.57360852 </i>
    <i name="e_0_energy">    -40.59291121 </i>
   </energy>
  </scstep>
  <scstep>
   <time name="dav">    0.46    0.46</time>
   <time name="total">    0.62    0.62</time>
   <energy>
    <i name="e_fr_energy">    -40.61221395 </i>
    <i name="e_wo_entrp">    -40.57360856 </i>
    <i name="e_0_energy">    -40.59291125 </i>
   </energy>
  </scstep>
  <scstep>
   <time name="dav">    0.46    0.46</time>
   <time name="total">    0.55    0.56</time>
   <energy>
    <i name="alphaZ">     68.61166137 </i>
    <i name="ewald">  36121.95798879 </i>
    <i name="hartreedc"> -41842.09760784 </i>
    <i name="XCdc">     18.59209687 </i>
    <i name="pawpsdc">   6635.70736538 </i>
    <i name="pawaedc">  -6417.47524992 </i>
    <i name="eentropy">     -0.03860539 </i>
    <i name="bandstr">   -452.42353781 </i>
    <i name="atom">   5826.55367459 </i>
    <i name="e_fr_energy">    -40.61221395 </i>
    <i name="e_wo_entrp">    -40.57360856 </i>
    <i name="e_0_energy">    -40.59291126 </i>
   </energy>
  </scstep>
  <structure>
   <crystal>
    <varray name="basis" >
     <v>       5.63181200       0.00000000       0.24626200 </v>
     <v>       2.81052200       4.88039700       0.24626200 </v>
     <v>       0.00000000       0.00000000      32.26031700 </v>
    </varray>
    <i name="volume">    886.69024574 </i>
    <varray name="rec_basis" >
     <v>       0.17756275      -0.10225480       0.00000000 </v>
     <v>       0.00000000       0.20490136       0.00000000 </v>
     <v>      -0.00135544      -0.00078356       0.03099784 </v>
    </varray>
   </crystal>
   <varray name="positions" >
    <v>       0.05426136       0.12569636       0.53922465 </v>
    <v>       0.05424851       0.62570362       0.53921606 </v>
    <v>       0.55426619       0.12568278       0.53922552 </v>
    <v>       0.55426663       0.62570281       0.53922525 </v>
    <v>       0.23214300       0.30357100       0.46428600 </v>
    <v>       0.23214300       0.80357100       0.46428600 </v>
    <v>       0.73214300       0.30357100       0.46428600 </v>
    <v>       0.73214300       0.80357100       0.46428600 </v>
   </varray>
  </structure>
  <varray name="forces" >
   <v>       0.03427733       0.01996376      -0.00376037 </v>
   <v>       0.03567605       0.01953023      -0.00046899 </v>
   <v>       0.03449922       0.02100811      -0.00383716 </v>
   <v>       0.03363619       0.01929321      -0.00401873 </v>
   <v>      -0.03444729      -0.02018234       0.00294096 </v>
   <v>      -0.03428966      -0.01988655       0.00293540 </v>
   <v>      -0.03461091      -0.01992829       0.00344530 </v>
   <v>      -0.03474092      -0.01979812       0.00276359 </v>
  </varray>
  <energy>
   <i name="e_fr_energy">    -40.61221395 </i>
   <i name="e_wo_entrp">    -40.57360856 </i>
   <i name="e_0_energy">    -40.59291126 </i>
  </energy>
  <time name="totalsc">    2.99    3.08</time>
 </calculation>
 <calculation>
  <scstep>
   <time name="dav">    0.46    0.47</time>
   <time name="total">    0.62    0.62</time>
   <energy>
    <i name="alphaZ">     68.61166137 </i>
    <i name="ewald">  36122.02011932 </i>
    <i name="hartreedc"> -41842.15954094 </i>
    <i name="XCdc">     18.59219348 </i>
    <i name="pawpsdc">   6635.70610350 </i>
    <i name="pawaedc">  -6417.47398145 </i>
    <i name="eentropy">     -0.03860538 </i>
    <i name="bandstr">   -452.42382743 </i>
    <i name="atom">   5826.55367459 </i>
    <i name="e_fr_energy">    -40.61220294 </i>
    <i name="e_wo_entrp">    -40.57359756 </i>
    <i name="e_0_energy">    -40.59290025 </i>
   </energy>
  </scstep>
  <scstep>
   <time name="dav">    0.47    0.47</time>
   <time name="total">    0.63    0.63</time>
   <energy>
    <i name="e_fr_energy">    -40.61220297 </i>
    <i name="e_wo_entrp">    -40.57359759 </i>
    <i name="e_0_energy">    -40.59290028 </i>
   </energy>
  </scstep>
  <scstep>
   <time name="dav">    0.46    0.46</time>
   <time name="total">    0.62    0.62</time>
   <energy>
    <i name="e_fr_energy">    -40.61220298 </i>
    <i name="e_wo_entrp">    -40.57359760 </i>
    <i name="e_0_energy">    -40.59290029 </i>
   </energy>
  </scstep>
  <scstep>
   <time name="dav">    0.46    0.46</time>
   <time name="total">    0.56    0.56</time>
   <energy>
    <i name="alphaZ">     68.61166137 </i>
    <i name="ewald">  36122.02011932 </i>
    <i name="hartreedc"> -41842.15908166 </i>
    <i name="XCdc">     18.59218452 </i>
    <i name="pawpsdc">   6635.71024311 </i>
    <i name="pawaedc">  -6417.47814770 </i>
    <i name="eentropy">     -0.03860538 </i>
    <i name="bandstr">   -452.42425115 </i>
    <i name="atom">   5826.55367459 </i>
    <i name="e_fr_energy">    -40.61220298 </i>
    <i name="e_wo_entrp">    -40.57359761 </i>
    <i name="e_0_energy">    -40.59290029 </i>
   </energy>
  </scstep>
  <structure>
   <crystal>
    <varray name="basis" >
     <v>       5.63181200       0.00000000       0.24626200 </v>
     <v>       2.81052200       4.88039700       0.24626200 </v>
     <v>       0.00000000       0.00000000      32.26031700 </v>
    </varray>
    <i name="volume">    886.69024574 </i>
    <varray name="rec_basis" >
     <v>       0.17756275      -0.10225480       0.00000000 </v>
     <v>       0.00000000       0.20490136       0.00000000 </v>
     <v>      -0.00135544      -0.00078356       0.03099784 </v>
    </varray>
   </crystal>
   <varray name="positions" >
    <v>       0.05426127       0.12569627       0.53922422 </v>
    <v>       0.05424843       0.62570353       0.53921562 </v>
    <v>       0.55426610       0.12568270       0.53922509 </v>
    <v>       0.55426654       0.62570272       0.53922481 </v>
    <v>       0.23214300       0.30357100       0.46428600 </v>
    <v>       0.23214300       0.80357100       0.46428600 </v>
    <v>       0.73214300       0.30357100       0.46428600 </v>
    <v>       0.73214300       0.80357100       0.46428600 </v>
   </varray>
  </structure>
  <varray name="forces" >
   <v>       0.03431341       0.01998023      -0.00303276 </v>
   <v>       0.03571010       0.01954707       0.00027116 </v>
   <v>       0.03452966       0.02102781      -0.00312862 </v>
   <v>       0.03366753       0.01931514      -0.00330519 </v>
   <v>      -0.03447816      -0.02020450       0.00222909 </v>
   <v>      -0.03432005      -0.01990618       0.00223012 </v>
   <v>      -0.03464593      -0.01994587       0.00270944 </v>
   <v>      -0.03477655      -0.01981370       0.00202676 </v>
  </varray>
  <energy>
   <i name="e_fr_energy">    -40.61220298 </i>
   <i name="e_wo_entrp">    -40.57359761 </i>
   <i name="e_0_energy">    -40.59290029 </i>
  </energy>
  <time name="totalsc">    3.00    3.02</time>
 </calculation>
 <calculation>
  <scstep>
   <time name="dav">    0.71    0.72</time>
   <time name="total">    0.87    0.87</time>
   <energy>
    <i name="alphaZ">     68.61166137 </i>
    <i name="ewald">  36122.56264467 </i>
    <i name="hartreedc"> -41842.69793539 </i>
    <i name="XCdc">     18.59308562 </i>
    <i name="pawpsdc">   6635.71138506 </i>
    <i name="pawaedc">  -6417.47929569 </i>
    <i name="eentropy">     -0.03859079 </i>
    <i name="bandstr">   -452.42882204 </i>
    <i name="atom">   5826.55367459 </i>
    <i name="e_fr_energy">    -40.61219259 </i>
    <i name="e_wo_entrp">    -40.57360181 </i>
    <i name="e_0_energy">    -40.59289720 </i>
   </energy>
  </scstep>
  <scstep>
   <time name="dav">    0.72    0.72</time>
   <time name="total">    0.87    0.88</time>
   <energy>
    <i name="e_fr_energy">    -40.61242811 </i>
    <i name="e_wo_entrp">    -40.57382921 </i>
    <i name="e_0_energy">    -40.59312866 </i>
   </energy>
  </scstep>
  <scstep>
   <time name="dav">    0.46    0.47</time>
   <time name="total">    0.62    0.63</time>
   <energy>
    <i name="e_fr_energy">    -40.61242654 </i>
    <i name="e_wo_entrp">    -40.57382721 </i>
    <i name="e_0_energy">    -40.59312688 </i>
   </energy>
  </scstep>
  <scstep>
   <time name="dav">    0.46    0.46</time>
   <time name="total">    0.56    0.56</time>
   <energy>
    <i name="alphaZ">     68.61166137 </i>
    <i name="ewald">  36122.56264467 </i>
    <i name="hartreedc"> -41842.69063476 </i>
    <i name="XCdc">     18.59303687 </i>
    <i name="pawpsdc">   6635.77120664 </i>
    <i name="pawaedc">  -6417.53956459 </i>
    <i name="eentropy">     -0.03859946 </i>
    <i name="bandstr">   -452.43584962 </i>
    <i name="atom">   5826.55367459 </i>
    <i name="e_fr_energy">    -40.61242428 </i>
    <i name="e_wo_entrp">    -40.57382483 </i>
    <i name="e_0_energy">    -40.59312455 </i>
   </energy>
  </scstep>
  <structure>
   <crystal>
    <varray name="basis" >
     <v>       5.63181200       0.00000000       0.24626200 </v>
     <v>       2.81052200       4.88039700       0.24626200 </v>
     <v>       0.00000000       0.00000000      32.26031700 </v>
    </varray>
    <i name="volume">    886.69024574 </i>
    <varray name="rec_basis" >
     <v>       0.17756275      -0.10225480       0.00000000 </v>
     <v>       0.00000000       0.20490136       0.00000000 </v>
     <v>      -0.00135544      -0.00078356       0.03099784 </v>
    </varray>
   </crystal>
   <varray name="positions" >
    <v>       0.05458370       0.12602222       0.53921867 </v>
    <v>       0.05459400       0.62602245       0.53921805 </v>
    <v>       0.55458309       0.12602563       0.53921921 </v>
    <v>       0.55458528       0.62601787       0.53921870 </v>
    <v>       0.23214300       0.30357100       0.46428600 </v>
    <v>       0.23214300       0.80357100       0.46428600 </v>
    <v>       0.73214300       0.30357100       0.46428600 </v>
    <v>       0.73214300       0.80357100       0.46428600 </v>
   </varray>
  </structure>
  <varray name="forces" >
   <v>       0.03748845       0.02189058      -0.00600183 </v>
   <v>       0.03699811       0.02205924      -0.00852472 </v>
   <v>       0.03795506       0.02125049      -0.00595991 </v>
   <v>       0.03814982       0.02179821      -0.00548598 </v>
   <v>      -0.03765340      -0.02143272       0.00568083 </v>
   <v>      -0.03791564      -0.02182239       0.00581978 </v>
   <v>      -0.03770101      -0.02185723       0.00822724 </v>
   <v>      -0.03732139      -0.02188618       0.00624459 </v>
  </varray>
  <energy>
   <i name="e_fr_energy">    -40.61242428 </i>
   <i name="e_wo_entrp">    -40.57382483 </i>
   <i name="e_0_energy">    -40.59312455 </i>
  </energy>
  <time name="totalsc">    3.50    3.67</time>
 </calculation>
 <calculation>
  <scstep>
   <time name="dav">    0.72    0.72</time>
   <time name="total">    0.88    0.88</time>
   <energy>
    <i name="alphaZ">     68.61166137 </i>
    <i name="ewald">  36124.19261120 </i>
    <i name="hartreedc"> -41844.31103499 </i>
    <i name="XCdc">     18.59585551 </i>
    <i name="pawpsdc">   6635.81255178 </i>
    <i name="pawaedc">  -6417.58122134 </i>
    <i name="eentropy">     -0.03852507 </i>
    <i name="bandstr">   -452.44633198 </i>
    <i name="atom">   5826.55367459 </i>
    <i name="e_fr_energy">    -40.61075893 </i>
    <i name="e_wo_entrp">    -40.57223386 </i>
    <i name="e_0_energy">    -40.59149640 </i>
   </energy>
  </scstep>
  <scstep>
   <time name="dav">    0.71    0.71</time>
   <time name="total">    0.87    0.87</time>
   <energy>
    <i name="e_fr_energy">    -40.61289253 </i>
    <i name="e_wo_entrp">    -40.57432376 </i>
    <i name="e_0_energy">    -40.59360814 </i>
   </energy>
  </scstep>
  <scstep>
   <time name="dav">    0.73    0.73</time>
   <time name="total">    0.89    0.89</time>
   <energy>
    <i name="e_fr_energy">    -40.61289371 </i>
    <i name="e_wo_entrp">    -40.57432383 </i>
    <i name="e_0_energy">    -40.59360877 </i>
   </energy>
  </scstep>
  <scstep>
   <time name="dav">    0.49    0.49</time>
   <time name="total">    0.58    0.58</time>
   <energy>
    <i name="alphaZ">     68.61166137 </i>
    <i name="ewald">  36124.19261120 </i>
    <i name="hartreedc"> -41844.30167589 </i>
    <i name="XCdc">     18.59559924 </i>
    <i name="pawpsdc">   6636.04174998 </i>
    <i name="pawaedc">  -6417.81192726 </i>
    <i name="eentropy">     -0.03856877 </i>
    <i name="bandstr">   -452.45599906 </i>
    <i name="atom">   5826.55367459 </i>
    <i name="e_fr_energy">    -40.61287461 </i>
    <i name="e_wo_entrp">    -40.57430584 </i>
    <i name="e_0_energy">    -40.59359023 </i>
   </energy>
  </scstep>
  <structure>
   <crystal>
    <varray name="basis" >
     <v>       5.63181200       0.00000000       0.24626200 </v>
     <v>       2.81052200       4.88039700       0.24626200 </v>
     <v>       0.00000000       0.00000000      32.26031700 </v>
    </varray>
    <i name="volume">    886.69024574 </i>
    <varray name="rec_basis" >
     <v>       0.17756275      -0.10225480       0.00000000 </v>
     <v>       0.00000000       0.20490136       0.00000000 </v>
     <v>      -0.00135544      -0.00078356       0.03099784 </v>
    </varray>
   </crystal>
   <varray name="positions" >
    <v>       0.05555096       0.12700005       0.53920200 </v>
    <v>       0.05563071       0.62697921       0.53922533 </v>
    <v>       0.55553404       0.12705444       0.53920158 </v>
    <v>       0.55554147       0.62696333       0.53920037 </v>
    <v>       0.23214300       0.30357100       0.46428600 </v>
    <v>       0.23214300       0.80357100       0.46428600 </v>
    <v>       0.73214300       0.30357100       0.46428600 </v>
    <v>       0.73214300       0.80357100       0.46428600 </v>
   </varray>
  </structure>
  <varray name="forces" >
   <v>       0.03053700       0.01752505      -0.01209195 </v>
   <v>       0.02585378       0.01720718      -0.02361577 </v>
   <v>       0.02913593       0.01449711      -0.01339617 </v>
   <v>       0.03525200       0.02050947      -0.01082607 </v>
   <v>      -0.03017315      -0.01609636       0.01256832 </v>
   <v>      -0.03152623      -0.01780573       0.01456964 </v>
   <v>      -0.03033819      -0.01790178       0.01844709 </v>
   <v>      -0.02874115      -0.01793494       0.01434491 </v>
  </varray>
  <energy>
   <i name="e_fr_energy">    -40.61287461 </i>
   <i name="e_wo_entrp">    -40.57430584 </i>
   <i name="e_0_energy">    -40.59359023 </i>
  </energy>
  <time name="totalsc">    4.77    4.79</time>
 </calculation>
 <calculation>
  <scstep>
   <time name="dav">    0.71    0.72</time>
   <time name="total">    0.87    0.88</time>
   <energy>
    <i name="alphaZ">     68.61166137 </i>
    <i name="ewald">  36127.46363375 </i>
    <i name="hartreedc"> -41847.56487968 </i>
    <i name="XCdc">     18.60168308 </i>
    <i name="pawpsdc">   6636.17223173 </i>
    <i name="pawaedc">  -6417.94356519 </i>
    <i name="eentropy">     -0.03830931 </i>
    <i name="bandstr">   -452.46073283 </i>
    <i name="atom">   5826.55367459 </i>
    <i name="e_fr_energy">    -40.60460249 </i>
    <i name="e_wo_entrp">    -40.56629318 </i>
    <i name="e_0_energy">    -40.58544784 </i>
   </energy>
  </scstep>
  <scstep>
   <time name="dav">    0.72    0.72</time>
   <time name="total">    0.87    0.88</time>
   <energy>
    <i name="e_fr_energy">    -40.61310799 </i>
    <i name="e_wo_entrp">    -40.57463626 </i>
    <i name="e_0_energy">    -40.59387212 </i>
   </energy>
  </scstep>
  <scstep>
   <time name="dav">    0.77    0.77</time>
   <time name="total">    0.93    0.93</time>
   <energy>
    <i name="e_fr_energy">    -40.61311412 </i>
    <i name="e_wo_entrp">    -40.57464021 </i>
    <i name="e_0_energy">    -40.59387717 </i>
   </energy>
  </scstep>
  <scstep>
   <time name="dav">    0.56    0.56</time>
   <time name="total">    0.72    0.72</time>
   <energy>
    <i name="e_fr_energy">    -40.61304603 </i>
    <i name="e_wo_entrp">    -40.57457830 </i>
    <i name="e_0_energy">    -40.59381216 </i>
   </energy>
  </scstep>
  <scstep>
   <time name="dav">    0.72    0.73</time>
   <time name="total">    0.88    0.88</time>
   <energy>
    <i name="e_fr_energy">    -40.61279980 </i>
    <i name="e_wo_entrp">    -40.57422015 </i>
    <i name="e_0_energy">    -40.59350997 </i>
   </energy>
  </scstep>
  <scstep>
   <time name="dav">    0.53    0.53</time>
   <time name="total">    0.62    0.63</time>
   <energy>
    <i name="alphaZ">     68.61166137 </i>
    <i name="ewald">  36127.46363375 </i>
    <i name="hartreedc"> -41847.53433989 </i>
    <i name="XCdc">     18.60045331 </i>
    <i name="pawpsdc">   6637.45694257 </i>
    <i name="pawaedc">  -6419.23665945 </i>
    <i name="eentropy">     -0.03858131 </i>
    <i name="bandstr">   -452.48961334 </i>
    <i name="atom">   5826.55367459 </i>
    <i name="e_fr_energy">    -40.61282839 </i>
    <i name="e_wo_entrp">    -40.57424709 </i>
    <i name="e_0_energy">    -40.59353774 </i>
   </energy>
  </scstep>
  <structure>
   <crystal>
    <varray name="basis" >
     <v>       5.63181200       0.00000000       0.24626200 </v>
     <v>       2.81052200       4.88039700       0.24626200 </v>
     <v>       0.00000000       0.00000000      32.26031700 </v>
    </varray>
    <i name="volume">    886.69024574 </i>
    <varray name="rec_basis" >
     <v>       0.17756275      -0.10225480       0.00000000 </v>
     <v>       0.00000000       0.20490136       0.00000000 </v>
     <v>      -0.00135544      -0.00078356       0.03099784 </v>
    </varray>
   </crystal>
   <varray name="positions" >
    <v>       0.05748550       0.12895571       0.53916868 </v>
    <v>       0.05770414       0.62889274       0.53923988 </v>
    <v>       0.55743594       0.12911205       0.53916632 </v>
    <v>       0.55745387       0.62885424       0.53916370 </v>
    <v>       0.23214300       0.30357100       0.46428600 </v>
    <v>       0.23214300       0.80357100       0.46428600 </v>
    <v>       0.73214300       0.30357100       0.46428600 </v>
    <v>       0.73214300       0.80357100       0.46428600 </v>
   </varray>
  </structure>
  <varray name="forces" >
   <v>       0.06298762       0.03465502      -0.01109015 </v>
   <v>       0.04540417       0.03461490      -0.03206032 </v>
   <v>       0.06033584       0.02741316      -0.01615567 </v>
   <v>       0.06755401       0.04058574      -0.00733584 </v>
   <v>      -0.05942623      -0.03265722       0.01646882 </v>
   <v>      -0.06108526      -0.03463307       0.01859789 </v>
   <v>      -0.05864556      -0.03491723       0.01276881 </v>
   <v>      -0.05712460      -0.03506131       0.01880646 </v>
  </varray>
  <energy>
   <i name="e_fr_energy">    -40.61282839 </i>
   <i name="e_wo_entrp">    -40.57424709 </i>
   <i name="e_0_energy">    -40.59353774 </i>
  </energy>
  <time name="totalsc">    5.48    5.56</time>
 </calculation>
 <calculation>
  <scstep>
   <time name="dav">    0.72    0.72</time>
   <time name="total">    0.88    0.88</time>
   <energy>
    <i name="alphaZ">     68.61166137 </i>
    <i name="ewald">  36134.05224483 </i>
    <i name="hartreedc"> -41854.11047138 </i>
    <i name="XCdc">     18.61450048 </i>
    <i name="pawpsdc">   6637.47666371 </i>
    <i name="pawaedc">  -6419.25665737 </i>
    <i name="eentropy">     -0.03767311 </i>
    <i name="bandstr">   -452.50375404 </i>
    <i name="atom">   5826.55367459 </i>
    <i name="e_fr_energy">    -40.59981092 </i>
    <i name="e_wo_entrp">    -40.56213781 </i>
    <i name="e_0_energy">    -40.58097436 </i>
   </energy>
  </scstep>
  <scstep>
   <time name="dav">    0.73    0.73</time>
   <time name="total">    0.88    0.88</time>
   <energy>
    <i name="e_fr_energy">    -40.63431083 </i>
    <i name="e_wo_entrp">    -40.59607948 </i>
    <i name="e_0_energy">    -40.61519516 </i>
   </energy>
  </scstep>
  <scstep>
   <time name="dav">    0.79    0.79</time>
   <time name="total">    0.94    0.95</time>
   <energy>
    <i name="e_fr_energy">    -40.63415419 </i>
    <i name="e_wo_entrp">    -40.59588537 </i>
    <i name="e_0_energy">    -40.61501978 </i>
   </energy>
  </scstep>
  <scstep>
   <time name="dav">    0.81    0.81</time>
   <time name="total">    0.96    0.96</time>
   <energy>
    <i name="e_fr_energy">    -40.63388036 </i>
    <i name="e_wo_entrp">    -40.59561373 </i>
    <i name="e_0_energy">    -40.61474705 </i>
   </energy>
  </scstep>
  <scstep>
   <time name="dav">    0.77    0.77</time>
   <time name="total">    0.92    0.92</time>
   <energy>
    <i name="e_fr_energy">    -40.63255820 </i>
    <i name="e_wo_entrp">    -40.59402691 </i>
    <i name="e_0_energy">    -40.61329256 </i>
   </energy>
  </scstep>
  <scstep>
   <time name="dav">    0.79    0.79</time>
   <time name="total">    0.94    0.95</time>
   <energy>
    <i name="e_fr_energy">    -40.63263284 </i>
    <i name="e_wo_entrp">    -40.59400771 </i>
    <i name="e_0_energy">    -40.61332028 </i>
   </energy>
  </scstep>
  <scstep>
   <time name="dav">    0.63    0.63</time>
   <time name="total">    0.72    0.72</time>
   <energy>
    <i name="alphaZ">     68.61166137 </i>
    <i name="ewald">  36134.05224483 </i>
    <i name="hartreedc"> -41853.95318814 </i>
    <i name="XCdc">     18.60855628 </i>
    <i name="pawpsdc">   6638.10233412 </i>
    <i name="pawaedc">  -6419.90109925 </i>
    <i name="eentropy">     -0.03863811 </i>
    <i name="bandstr">   -452.66811022 </i>
    <i name="atom">   5826.55367459 </i>
    <i name="e_fr_energy">    -40.63256452 </i>
    <i name="e_wo_entrp">    -40.59392641 </i>
    <i name="e_0_energy">    -40.61324547 </i>
   </energy>
  </scstep>
  <structure>
   <crystal>
    <varray name="basis" >
     <v>       5.63181200       0.00000000       0.24626200 </v>
     <v>       2.81052200       4.88039700       0.24626200 </v>
     <v>       0.00000000       0.00000000      32.26031700 </v>
    </varray>
    <i name="volume">    886.69024574 </i>
    <varray name="rec_basis" >
     <v>       0.17756275      -0.10225480       0.00000000 </v>
     <v>       0.00000000       0.20490136       0.00000000 </v>
     <v>      -0.00135544      -0.00078356       0.03099784 </v>
    </varray>
   </crystal>
   <varray name="positions" >
    <v>       0.06135457       0.13286704       0.53910203 </v>
    <v>       0.06185100       0.63271979       0.53926899 </v>
    <v>       0.56123973       0.13322728       0.53909581 </v>
    <v>       0.56127865       0.63263606       0.53909035 </v>
    <v>       0.23214300       0.30357100       0.46428600 </v>
    <v>       0.23214300       0.80357100       0.46428600 </v>
    <v>       0.73214300       0.30357100       0.46428600 </v>
    <v>       0.73214300       0.80357100       0.46428600 </v>
   </varray>
  </structure>
  <varray name="forces" >
   <v>       0.07784661       0.03608353      -0.05261108 </v>
   <v>      -0.00153308       0.05515761      -0.14644409 </v>
   <v>       0.06649309      -0.02295063      -0.05253610 </v>
   <v>       0.11098198       0.07435174      -0.04157078 </v>
   <v>      -0.06580420      -0.03197000       0.07475525 </v>
   <v>      -0.06729879      -0.03582830       0.07277364 </v>
   <v>      -0.06090742      -0.03626970       0.06516864 </v>
   <v>      -0.05977819      -0.03857425       0.08046452 </v>
  </varray>
  <energy>
   <i name="e_fr_energy">    -40.63256452 </i>
   <i name="e_wo_entrp">    -40.59392641 </i>
   <i name="e_0_energy">    -40.61324547 </i>
  </energy>
  <time name="totalsc">    6.82    6.91</time>
 </calculation>
 <calculation>
  <scstep>
   <time name="dav">    0.72    0.72</time>
   <time name="total">    0.88    0.88</time>
   <energy>
    <i name="alphaZ">     68.61166137 </i>
    <i name="ewald">  36147.43256895 </i>
    <i name="hartreedc"> -41867.35918919 </i>
    <i name="XCdc">     18.64362673 </i>
    <i name="pawpsdc">   6638.04550214 </i>
    <i name="pawaedc">  -6419.84431478 </i>
    <i name="eentropy">     -0.03469501 </i>
    <i name="bandstr">   -452.50774977 </i>
    <i name="atom">   5826.55367459 </i>
    <i name="e_fr_energy">    -40.45891497 </i>
    <i name="e_wo_entrp">    -40.42421996 </i>
    <i name="e_0_energy">    -40.44156747 </i>
   </energy>
  </scstep>
  <scstep>
   <time name="dav">    0.71    0.72</time>
   <time name="total">    0.87    0.88</time>
   <energy>
    <i name="e_fr_energy">    -40.59822884 </i>
    <i name="e_wo_entrp">    -40.56222543 </i>
    <i name="e_0_energy">    -40.58022714 </i>
   </energy>
  </scstep>
  <scstep>
   <time name="dav">    0.78    0.79</time>
   <time name="total">    0.94    0.94</time>
   <energy>
    <i name="e_fr_energy">    -40.59799557 </i>
    <i name="e_wo_entrp">    -40.56186825 </i>
    <i name="e_0_energy">    -40.57993191 </i>
   </energy>
  </scstep>
  <scstep>
   <time name="dav">    0.79    0.79</time>
   <time name="total">    0.94    0.94</time>
   <energy>
    <i name="e_fr_energy">    -40.59743584 </i>
    <i name="e_wo_entrp">    -40.56105759 </i>
    <i name="e_0_energy">    -40.57924671 </i>
   </energy>
  </scstep>
  <scstep>
   <time name="dav">    0.78    0.78</time>
   <time name="total">    0.93    0.93</time>
   <energy>
    <i name="e_fr_energy">    -40.59200819 </i>
    <i name="e_wo_entrp">    -40.55522217 </i>
    <i name="e_0_energy">    -40.57361518 </i>
   </energy>
  </scstep>
  <scstep>
   <time name="dav">    0.80    0.80</time>
   <time name="total">    0.95    0.96</time>
   <energy>
    <i name="e_fr_energy">    -40.59256242 </i>
    <i name="e_wo_entrp">    -40.55557250 </i>
    <i name="e_0_energy">    -40.57406746 </i>
   </energy>
  </scstep>
  <scstep>
   <time name="dav">    0.77    0.77</time>
   <time name="total">    0.92    0.93</time>
   <energy>
    <i name="e_fr_energy">    -40.59221786 </i>
    <i name="e_wo_entrp">    -40.55512381 </i>
    <i name="e_0_energy">    -40.57367084 </i>
   </energy>
  </scstep>
  <scstep>
   <time name="dav">    0.55    0.55</time>
   <time name="total">    0.64    0.64</time>
   <energy>
    <i name="alphaZ">     68.61166137 </i>
    <i name="ewald">  36147.43256895 </i>
    <i name="hartreedc"> -41866.63307016 </i>
    <i name="XCdc">     18.62917273 </i>
    <i name="pawpsdc">   6638.00690440 </i>
    <i name="pawaedc">  -6419.88535363 </i>
    <i name="eentropy">     -0.03706735 </i>
    <i name="bandstr">   -453.27064913 </i>
    <i name="atom">   5826.55367459 </i>
    <i name="e_fr_energy">    -40.59215822 </i>
    <i name="e_wo_entrp">    -40.55509088 </i>
    <i name="e_0_energy">    -40.57362455 </i>
   </energy>
  </scstep>
  <structure>
   <crystal>
    <varray name="basis" >
     <v>       5.63181200       0.00000000       0.24626200 </v>
     <v>       2.81052200       4.88039700       0.24626200 </v>
     <v>       0.00000000       0.00000000      32.26031700 </v>
    </varray>
[...]
        <r>  0.0129  0.0000  0.0012  0.0002  0.0661  0.0091  0.0005  0.0270  0.0221 </r>
       </set>
       <set comment="band 25">
        <r>  0.0009  0.0010  0.0009  0.0000  0.0163  0.0382  0.0364  0.0747  0.0126 </r>
        <r>  0.0001  0.0066  0.0001  0.0025  0.0100  0.0014  0.0036  0.0197  0.0044 </r>
        <r>  0.0001  0.0065  0.0001  0.0026  0.0097  0.0013  0.0035  0.0201  0.0046 </r>
        <r>  0.0008  0.0010  0.0009  0.0000  0.0158  0.0376  0.0362  0.0732  0.0122 </r>
        <r>  0.0009  0.0005  0.0008  0.0006  0.0258  0.0192  0.0368  0.0932  0.0029 </r>
        <r>  0.0001  0.0074  0.0001  0.0021  0.0001  0.0196  0.0035  0.0015  0.0140 </r>
        <r>  0.0001  0.0073  0.0001  0.0021  0.0001  0.0197  0.0035  0.0015  0.0141 </r>
        <r>  0.0009  0.0005  0.0008  0.0005  0.0256  0.0191  0.0363  0.0925  0.0029 </r>
       </set>
       <set comment="band 26">
        <r>  0.0001  0.0065  0.0001  0.0026  0.0093  0.0013  0.0034  0.0203  0.0048 </r>
        <r>  0.0008  0.0009  0.0009  0.0000  0.0155  0.0373  0.0360  0.0736  0.0125 </r>
        <r>  0.0009  0.0009  0.0009  0.0000  0.0159  0.0381  0.0362  0.0753  0.0127 </r>
        <r>  0.0001  0.0065  0.0001  0.0025  0.0096  0.0013  0.0034  0.0202  0.0046 </r>
        <r>  0.0001  0.0073  0.0001  0.0022  0.0000  0.0197  0.0037  0.0015  0.0141 </r>
        <r>  0.0008  0.0005  0.0008  0.0005  0.0254  0.0194  0.0366  0.0918  0.0029 </r>
        <r>  0.0009  0.0005  0.0008  0.0006  0.0258  0.0197  0.0370  0.0930  0.0030 </r>
        <r>  0.0001  0.0074  0.0001  0.0021  0.0001  0.0197  0.0038  0.0016  0.0139 </r>
       </set>
       <set comment="band 27">
        <r>  0.0000  0.0005  0.0000  0.0002  0.0176  0.0104  0.0000  0.0035  0.0525 </r>
        <r>  0.0000  0.0015  0.0000  0.0005  0.0070  0.0913  0.0000  0.0302  0.0207 </r>
        <r>  0.0000  0.0015  0.0000  0.0005  0.0071  0.0916  0.0000  0.0304  0.0207 </r>
        <r>  0.0000  0.0005  0.0000  0.0002  0.0176  0.0105  0.0000  0.0035  0.0527 </r>
        <r>  0.0000  0.0019  0.0000  0.0006  0.0026  0.1011  0.0000  0.0335  0.0076 </r>
        <r>  0.0000  0.0002  0.0000  0.0000  0.0224  0.0008  0.0000  0.0003  0.0677 </r>
        <r>  0.0000  0.0002  0.0000  0.0000  0.0224  0.0008  0.0000  0.0003  0.0678 </r>
        <r>  0.0000  0.0019  0.0000  0.0006  0.0026  0.1008  0.0000  0.0335  0.0076 </r>
       </set>
       <set comment="band 28">
        <r>  0.0000  0.0015  0.0000  0.0005  0.0068  0.0915  0.0000  0.0304  0.0206 </r>
        <r>  0.0000  0.0005  0.0000  0.0002  0.0174  0.0107  0.0000  0.0034  0.0527 </r>
        <r>  0.0000  0.0005  0.0000  0.0002  0.0174  0.0106  0.0000  0.0034  0.0526 </r>
        <r>  0.0000  0.0015  0.0000  0.0005  0.0068  0.0913  0.0000  0.0303  0.0205 </r>
        <r>  0.0000  0.0001  0.0000  0.0000  0.0229  0.0008  0.0000  0.0003  0.0684 </r>
        <r>  0.0000  0.0019  0.0000  0.0006  0.0025  0.1006  0.0000  0.0332  0.0076 </r>
        <r>  0.0000  0.0019  0.0000  0.0006  0.0025  0.1008  0.0000  0.0333  0.0076 </r>
        <r>  0.0000  0.0001  0.0000  0.0000  0.0229  0.0008  0.0000  0.0003  0.0684 </r>
       </set>
       <set comment="band 29">
        <r>  0.0000  0.0000  0.0000  0.0000  0.0536  0.0018  0.0000  0.0004  0.1631 </r>
        <r>  0.0000  0.0012  0.0000  0.0004  0.0006  0.0118  0.0000  0.0040  0.0018 </r>
        <r>  0.0000  0.0012  0.0000  0.0004  0.0006  0.0119  0.0000  0.0040  0.0018 </r>
        <r>  0.0000  0.0000  0.0000  0.0000  0.0537  0.0018  0.0000  0.0004  0.1630 </r>
        <r>  0.0000  0.0002  0.0000  0.0001  0.0467  0.0003  0.0000  0.0002  0.1415 </r>
        <r>  0.0000  0.0010  0.0000  0.0003  0.0078  0.0140  0.0000  0.0049  0.0227 </r>
        <r>  0.0000  0.0010  0.0000  0.0003  0.0079  0.0141  0.0000  0.0048  0.0227 </r>
        <r>  0.0000  0.0002  0.0000  0.0001  0.0467  0.0003  0.0000  0.0002  0.1414 </r>
       </set>
       <set comment="band 30">
        <r>  0.0000  0.0012  0.0000  0.0004  0.0006  0.0118  0.0000  0.0040  0.0019 </r>
        <r>  0.0000  0.0000  0.0000  0.0000  0.0542  0.0014  0.0000  0.0006  0.1622 </r>
        <r>  0.0000  0.0000  0.0000  0.0000  0.0541  0.0014  0.0000  0.0006  0.1622 </r>
        <r>  0.0000  0.0012  0.0000  0.0004  0.0006  0.0118  0.0000  0.0040  0.0018 </r>
        <r>  0.0000  0.0010  0.0000  0.0003  0.0074  0.0141  0.0000  0.0045  0.0231 </r>
        <r>  0.0000  0.0002  0.0000  0.0001  0.0471  0.0005  0.0000  0.0001  0.1419 </r>
        <r>  0.0000  0.0002  0.0000  0.0001  0.0472  0.0005  0.0000  0.0001  0.1420 </r>
        <r>  0.0000  0.0010  0.0000  0.0003  0.0074  0.0140  0.0000  0.0046  0.0231 </r>
       </set>
       <set comment="band 31">
        <r>  0.0018  0.0000  0.0019  0.0000  0.0115  0.0108  0.0453  0.0326  0.0034 </r>
        <r>  0.0024  0.0000  0.0030  0.0000  0.0017  0.0079  0.0667  0.0245  0.0004 </r>
        <r>  0.0024  0.0000  0.0030  0.0000  0.0017  0.0080  0.0666  0.0246  0.0004 </r>
        <r>  0.0018  0.0000  0.0019  0.0000  0.0115  0.0107  0.0454  0.0325  0.0034 </r>
        <r>  0.0031  0.0000  0.0040  0.0000  0.0033  0.0049  0.0861  0.0139  0.0014 </r>
        <r>  0.0010  0.0000  0.0011  0.0000  0.0090  0.0144  0.0257  0.0424  0.0035 </r>
        <r>  0.0010  0.0000  0.0011  0.0000  0.0090  0.0144  0.0256  0.0425  0.0035 </r>
        <r>  0.0032  0.0000  0.0040  0.0000  0.0033  0.0048  0.0864  0.0139  0.0014 </r>
       </set>
       <set comment="band 32">
        <r>  0.0024  0.0000  0.0030  0.0000  0.0014  0.0081  0.0667  0.0245  0.0007 </r>
        <r>  0.0018  0.0000  0.0019  0.0000  0.0108  0.0111  0.0455  0.0322  0.0041 </r>
        <r>  0.0018  0.0000  0.0019  0.0000  0.0108  0.0110  0.0454  0.0323  0.0041 </r>
        <r>  0.0024  0.0000  0.0030  0.0000  0.0014  0.0080  0.0668  0.0244  0.0007 </r>
        <r>  0.0011  0.0000  0.0011  0.0000  0.0097  0.0142  0.0256  0.0429  0.0027 </r>
        <r>  0.0031  0.0000  0.0040  0.0000  0.0036  0.0043  0.0864  0.0144  0.0010 </r>
        <r>  0.0031  0.0000  0.0040  0.0000  0.0036  0.0044  0.0861  0.0145  0.0010 </r>
        <r>  0.0010  0.0000  0.0011  0.0000  0.0097  0.0140  0.0256  0.0425  0.0027 </r>
       </set>
       <set comment="band 33">
        <r>  0.0005  0.0000  0.0003  0.0001  0.0047  0.0028  0.0000  0.1237  0.0001 </r>
        <r>  0.0003  0.0001  0.0002  0.0000  0.0003  0.0785  0.0000  0.0215  0.0057 </r>
        <r>  0.0003  0.0001  0.0002  0.0000  0.0008  0.0666  0.0000  0.0255  0.0028 </r>
        <r>  0.0005  0.0000  0.0003  0.0001  0.0063  0.0039  0.0000  0.1204  0.0001 </r>
        <r>  0.0005  0.0001  0.0003  0.0000  0.0019  0.0693  0.0000  0.0534  0.0029 </r>
        <r>  0.0003  0.0000  0.0002  0.0001  0.0055  0.0000  0.0000  0.0943  0.0006 </r>
        <r>  0.0003  0.0000  0.0002  0.0001  0.0037  0.0000  0.0000  0.0958  0.0000 </r>
        <r>  0.0005  0.0001  0.0003  0.0000  0.0011  0.0826  0.0000  0.0474  0.0052 </r>
       </set>
       <set comment="band 34">
        <r>  0.0003  0.0001  0.0002  0.0000  0.0008  0.0648  0.0000  0.0258  0.0028 </r>
        <r>  0.0005  0.0000  0.0003  0.0001  0.0067  0.0035  0.0000  0.1211  0.0002 </r>
        <r>  0.0005  0.0000  0.0003  0.0001  0.0043  0.0029  0.0000  0.1228  0.0003 </r>
        <r>  0.0003  0.0001  0.0002  0.0000  0.0003  0.0808  0.0000  0.0207  0.0056 </r>
        <r>  0.0003  0.0000  0.0002  0.0001  0.0037  0.0000  0.0000  0.0968  0.0000 </r>
        <r>  0.0005  0.0001  0.0003  0.0000  0.0009  0.0833  0.0001  0.0474  0.0060 </r>
        <r>  0.0005  0.0001  0.0003  0.0000  0.0021  0.0679  0.0001  0.0545  0.0024 </r>
        <r>  0.0003  0.0000  0.0002  0.0001  0.0054  0.0000  0.0000  0.0927  0.0006 </r>
       </set>
       <set comment="band 35">
        <r>  0.0000  0.0002  0.0000  0.0001  0.0309  0.0003  0.0000  0.0005  0.0903 </r>
        <r>  0.0000  0.0005  0.0000  0.0002  0.0067  0.0653  0.0000  0.0273  0.0184 </r>
        <r>  0.0000  0.0005  0.0000  0.0002  0.0062  0.0778  0.0000  0.0208  0.0199 </r>
        <r>  0.0000  0.0002  0.0000  0.0001  0.0291  0.0003  0.0000  0.0000  0.0894 </r>
        <r>  0.0000  0.0001  0.0000  0.0000  0.0286  0.0516  0.0000  0.0144  0.0886 </r>
        <r>  0.0000  0.0006  0.0000  0.0002  0.0062  0.0236  0.0000  0.0113  0.0201 </r>
        <r>  0.0000  0.0006  0.0000  0.0002  0.0072  0.0257  0.0000  0.0058  0.0199 </r>
        <r>  0.0000  0.0001  0.0000  0.0000  0.0291  0.0420  0.0000  0.0169  0.0854 </r>
       </set>
       <set comment="band 36">
        <r>  0.0000  0.0005  0.0000  0.0002  0.0059  0.0803  0.0000  0.0194  0.0204 </r>
        <r>  0.0000  0.0002  0.0000  0.0001  0.0285  0.0002  0.0000  0.0000  0.0893 </r>
        <r>  0.0000  0.0002  0.0000  0.0001  0.0310  0.0004  0.0000  0.0006  0.0908 </r>
        <r>  0.0000  0.0005  0.0000  0.0002  0.0067  0.0631  0.0000  0.0288  0.0183 </r>
        <r>  0.0000  0.0006  0.0000  0.0002  0.0073  0.0264  0.0000  0.0048  0.0197 </r>
        <r>  0.0000  0.0001  0.0000  0.0000  0.0290  0.0402  0.0000  0.0171  0.0847 </r>
        <r>  0.0000  0.0001  0.0000  0.0000  0.0286  0.0533  0.0000  0.0140  0.0891 </r>
        <r>  0.0000  0.0006  0.0000  0.0002  0.0059  0.0229  0.0000  0.0125  0.0200 </r>
       </set>
       <set comment="band 37">
        <r>  0.0031  0.0003  0.0007  0.0000  0.0027  0.0000  0.1144  0.0335  0.0002 </r>
        <r>  0.0011  0.0004  0.0002  0.0003  0.0001  0.0303  0.0396  0.0001  0.0042 </r>
        <r>  0.0011  0.0004  0.0002  0.0003  0.0001  0.0302  0.0398  0.0001  0.0043 </r>
        <r>  0.0031  0.0003  0.0007  0.0000  0.0027  0.0000  0.1144  0.0333  0.0002 </r>
        <r>  0.0030  0.0001  0.0008  0.0002  0.0003  0.0235  0.1144  0.0085  0.0026 </r>
        <r>  0.0010  0.0006  0.0003  0.0001  0.0026  0.0066  0.0396  0.0239  0.0017 </r>
        <r>  0.0010  0.0006  0.0003  0.0001  0.0026  0.0066  0.0398  0.0239  0.0017 </r>
        <r>  0.0030  0.0001  0.0008  0.0002  0.0003  0.0238  0.1142  0.0085  0.0026 </r>
       </set>
       <set comment="band 38">
        <r>  0.0011  0.0004  0.0002  0.0003  0.0001  0.0298  0.0399  0.0000  0.0043 </r>
        <r>  0.0031  0.0003  0.0007  0.0000  0.0027  0.0000  0.1144  0.0330  0.0002 </r>
        <r>  0.0031  0.0003  0.0007  0.0000  0.0027  0.0000  0.1146  0.0332  0.0001 </r>
        <r>  0.0011  0.0004  0.0002  0.0003  0.0001  0.0300  0.0398  0.0000  0.0043 </r>
        <r>  0.0011  0.0006  0.0003  0.0001  0.0025  0.0063  0.0398  0.0244  0.0017 </r>
        <r>  0.0030  0.0001  0.0008  0.0002  0.0003  0.0236  0.1143  0.0087  0.0026 </r>
        <r>  0.0030  0.0001  0.0008  0.0002  0.0003  0.0234  0.1145  0.0088  0.0027 </r>
        <r>  0.0011  0.0006  0.0003  0.0001  0.0025  0.0064  0.0397  0.0244  0.0017 </r>
       </set>
       <set comment="band 39">
        <r>  0.0000  0.0000  0.0000  0.0000  0.0009  0.0807  0.0000  0.0269  0.0026 </r>
        <r>  0.0000  0.0001  0.0000  0.0000  0.0023  0.0925  0.0000  0.0310  0.0069 </r>
        <r>  0.0000  0.0001  0.0000  0.0000  0.0023  0.0927  0.0000  0.0310  0.0069 </r>
        <r>  0.0000  0.0000  0.0000  0.0000  0.0009  0.0808  0.0000  0.0268  0.0026 </r>
        <r>  0.0000  0.0000  0.0000  0.0000  0.0000  0.1529  0.0000  0.0511  0.0001 </r>
        <r>  0.0000  0.0000  0.0000  0.0000  0.0032  0.0199  0.0000  0.0067  0.0095 </r>
        <r>  0.0000  0.0000  0.0000  0.0000  0.0031  0.0200  0.0000  0.0067  0.0095 </r>
        <r>  0.0000  0.0000  0.0000  0.0000  0.0000  0.1527  0.0000  0.0511  0.0001 </r>
       </set>
       <set comment="band 40">
        <r>  0.0000  0.0001  0.0000  0.0000  0.0023  0.0924  0.0000  0.0310  0.0070 </r>
        <r>  0.0000  0.0000  0.0000  0.0000  0.0009  0.0807  0.0000  0.0269  0.0026 </r>
        <r>  0.0000  0.0000  0.0000  0.0000  0.0009  0.0806  0.0000  0.0270  0.0026 </r>
        <r>  0.0000  0.0001  0.0000  0.0000  0.0023  0.0924  0.0000  0.0310  0.0070 </r>
        <r>  0.0000  0.0000  0.0000  0.0000  0.0031  0.0199  0.0000  0.0067  0.0095 </r>
        <r>  0.0000  0.0000  0.0000  0.0000  0.0000  0.1530  0.0000  0.0511  0.0001 </r>
        <r>  0.0000  0.0000  0.0000  0.0000  0.0000  0.1532  0.0000  0.0510  0.0001 </r>
        <r>  0.0000  0.0000  0.0000  0.0000  0.0031  0.0199  0.0000  0.0067  0.0095 </r>
       </set>
       <set comment="band 41">
        <r>  0.0068  0.0000  0.0024  0.0000  0.0558  0.0035  0.1184  0.0103  0.0185 </r>
        <r>  0.0000  0.0003  0.0000  0.0001  0.0003  0.0142  0.0000  0.0048  0.0009 </r>
        <r>  0.0000  0.0003  0.0000  0.0001  0.0003  0.0142  0.0000  0.0048  0.0009 </r>
        <r>  0.0068  0.0000  0.0024  0.0000  0.0557  0.0034  0.1184  0.0104  0.0185 </r>
        <r>  0.0067  0.0000  0.0026  0.0000  0.0558  0.0034  0.1183  0.0103  0.0185 </r>
        <r>  0.0000  0.0003  0.0000  0.0001  0.0003  0.0142  0.0000  0.0047  0.0009 </r>
        <r>  0.0000  0.0003  0.0000  0.0001  0.0003  0.0142  0.0000  0.0047  0.0009 </r>
        <r>  0.0067  0.0000  0.0026  0.0000  0.0558  0.0034  0.1183  0.0103  0.0185 </r>
       </set>
       <set comment="band 42">
        <r>  0.0000  0.0003  0.0000  0.0001  0.0003  0.0142  0.0000  0.0048  0.0009 </r>
        <r>  0.0068  0.0000  0.0024  0.0000  0.0557  0.0035  0.1184  0.0104  0.0185 </r>
        <r>  0.0068  0.0000  0.0024  0.0000  0.0558  0.0035  0.1182  0.0103  0.0185 </r>
        <r>  0.0000  0.0003  0.0000  0.0001  0.0003  0.0142  0.0000  0.0048  0.0009 </r>
        <r>  0.0000  0.0003  0.0000  0.0001  0.0003  0.0142  0.0000  0.0047  0.0009 </r>
        <r>  0.0068  0.0000  0.0026  0.0000  0.0557  0.0034  0.1184  0.0103  0.0185 </r>
        <r>  0.0067  0.0000  0.0026  0.0000  0.0558  0.0034  0.1183  0.0103  0.0185 </r>
        <r>  0.0000  0.0003  0.0000  0.0001  0.0003  0.0142  0.0000  0.0048  0.0009 </r>
       </set>
       <set comment="band 43">
        <r>  0.0325  0.0003  0.0106  0.0008  0.0006  0.0075  0.0435  0.0223  0.0002 </r>
        <r>  0.0146  0.0012  0.0019  0.0037  0.0000  0.0074  0.0196  0.0224  0.0000 </r>
        <r>  0.0147  0.0012  0.0019  0.0037  0.0000  0.0074  0.0196  0.0224  0.0000 </r>
        <r>  0.0325  0.0003  0.0106  0.0008  0.0006  0.0075  0.0434  0.0222  0.0002 </r>
        <r>  0.0411  0.0001  0.0126  0.0002  0.0006  0.0042  0.0552  0.0124  0.0002 </r>
        <r>  0.0059  0.0015  0.0004  0.0044  0.0000  0.0107  0.0079  0.0322  0.0000 </r>
        <r>  0.0059  0.0015  0.0004  0.0044  0.0000  0.0107  0.0079  0.0322  0.0000 </r>
        <r>  0.0410  0.0001  0.0126  0.0002  0.0006  0.0042  0.0552  0.0123  0.0002 </r>
       </set>
       <set comment="band 44">
        <r>  0.0146  0.0012  0.0019  0.0037  0.0000  0.0074  0.0195  0.0224  0.0000 </r>
        <r>  0.0325  0.0003  0.0106  0.0008  0.0006  0.0075  0.0434  0.0222  0.0002 </r>
        <r>  0.0325  0.0003  0.0106  0.0008  0.0006  0.0075  0.0435  0.0223  0.0002 </r>
        <r>  0.0146  0.0012  0.0019  0.0037  0.0000  0.0074  0.0196  0.0224  0.0000 </r>
        <r>  0.0059  0.0015  0.0004  0.0044  0.0000  0.0107  0.0078  0.0322  0.0000 </r>
        <r>  0.0410  0.0001  0.0126  0.0002  0.0006  0.0041  0.0551  0.0124  0.0002 </r>
        <r>  0.0411  0.0001  0.0126  0.0002  0.0006  0.0041  0.0553  0.0124  0.0002 </r>
        <r>  0.0059  0.0015  0.0004  0.0044  0.0000  0.0107  0.0079  0.0322  0.0000 </r>
       </set>
       <set comment="band 45">
        <r>  0.0281  0.0074  0.0006  0.0025  0.0666  0.0004  0.0122  0.0006  0.0218 </r>
        <r>  0.0131  0.0160  0.0003  0.0053  0.0307  0.0016  0.0057  0.0002  0.0105 </r>
        <r>  0.0131  0.0159  0.0003  0.0053  0.0306  0.0016  0.0057  0.0002  0.0105 </r>
        <r>  0.0281  0.0074  0.0006  0.0025  0.0666  0.0004  0.0122  0.0006  0.0218 </r>
        <r>  0.0282  0.0076  0.0006  0.0024  0.0661  0.0009  0.0122  0.0000  0.0223 </r>
        <r>  0.0131  0.0160  0.0003  0.0055  0.0312  0.0010  0.0057  0.0008  0.0100 </r>
        <r>  0.0131  0.0160  0.0003  0.0055  0.0312  0.0010  0.0057  0.0008  0.0100 </r>
        <r>  0.0282  0.0076  0.0006  0.0024  0.0661  0.0009  0.0122  0.0000  0.0223 </r>
       </set>
       <set comment="band 46">
        <r>  0.0131  0.0159  0.0003  0.0053  0.0306  0.0016  0.0057  0.0002  0.0105 </r>
        <r>  0.0281  0.0073  0.0006  0.0025  0.0665  0.0004  0.0123  0.0006  0.0218 </r>
        <r>  0.0281  0.0074  0.0006  0.0025  0.0666  0.0004  0.0123  0.0006  0.0218 </r>
        <r>  0.0131  0.0159  0.0003  0.0053  0.0306  0.0016  0.0057  0.0002  0.0104 </r>
        <r>  0.0132  0.0160  0.0003  0.0055  0.0313  0.0010  0.0057  0.0008  0.0100 </r>
        <r>  0.0283  0.0076  0.0006  0.0024  0.0662  0.0009  0.0122  0.0000  0.0223 </r>
        <r>  0.0283  0.0076  0.0006  0.0024  0.0662  0.0009  0.0122  0.0000  0.0223 </r>
        <r>  0.0132  0.0160  0.0003  0.0055  0.0313  0.0010  0.0057  0.0008  0.0100 </r>
       </set>
       <set comment="band 47">
        <r>  0.0468  0.0075  0.0088  0.0021  0.0350  0.0018  0.0001  0.0009  0.0132 </r>
        <r>  0.0140  0.0235  0.0026  0.0083  0.0120  0.0067  0.0000  0.0020  0.0025 </r>
        <r>  0.0140  0.0234  0.0027  0.0083  0.0120  0.0067  0.0000  0.0020  0.0025 </r>
        <r>  0.0468  0.0075  0.0088  0.0021  0.0349  0.0018  0.0001  0.0009  0.0132 </r>
        <r>  0.0467  0.0070  0.0091  0.0027  0.0371  0.0022  0.0001  0.0005  0.0108 </r>
        <r>  0.0141  0.0242  0.0028  0.0078  0.0097  0.0064  0.0000  0.0024  0.0048 </r>
        <r>  0.0141  0.0242  0.0027  0.0078  0.0097  0.0063  0.0000  0.0024  0.0048 </r>
        <r>  0.0467  0.0070  0.0091  0.0027  0.0371  0.0022  0.0001  0.0005  0.0108 </r>
       </set>
       <set comment="band 48">
        <r>  0.0141  0.0234  0.0027  0.0083  0.0121  0.0067  0.0000  0.0020  0.0025 </r>
        <r>  0.0469  0.0074  0.0088  0.0020  0.0350  0.0018  0.0001  0.0009  0.0132 </r>
        <r>  0.0468  0.0075  0.0089  0.0021  0.0350  0.0018  0.0001  0.0009  0.0132 </r>
        <r>  0.0141  0.0234  0.0026  0.0083  0.0121  0.0067  0.0000  0.0020  0.0025 </r>
        <r>  0.0140  0.0242  0.0027  0.0078  0.0097  0.0063  0.0000  0.0024  0.0048 </r>
        <r>  0.0467  0.0070  0.0091  0.0027  0.0371  0.0022  0.0001  0.0005  0.0108 </r>
        <r>  0.0466  0.0070  0.0091  0.0027  0.0371  0.0022  0.0001  0.0005  0.0108 </r>
        <r>  0.0140  0.0242  0.0028  0.0078  0.0097  0.0063  0.0000  0.0024  0.0048 </r>
       </set>
      </set>
     </set>
    </set>
   </array>
  </projected>
 </calculation>
 <structure name="finalpos" >
  <crystal>
   <varray name="basis" >
    <v>       5.63181200       0.00000000       0.24626200 </v>
    <v>       2.81052200       4.88039700       0.24626200 </v>
    <v>       0.00000000       0.00000000      32.26031700 </v>
   </varray>
   <i name="volume">    886.69024574 </i>
   <varray name="rec_basis" >
    <v>       0.17756275      -0.10225480       0.00000000 </v>
    <v>       0.00000000       0.20490136       0.00000000 </v>
    <v>      -0.00135544      -0.00078356       0.03099784 </v>
   </varray>
  </crystal>
  <varray name="positions" >
   <v>       0.06418751       0.13562432       0.53871876 </v>
   <v>       0.06379066       0.63597150       0.53870059 </v>
   <v>       0.56397491       0.13576554       0.53871535 </v>
   <v>       0.56408042       0.63566492       0.53870979 </v>
   <v>       0.23214300       0.30357100       0.46428600 </v>
   <v>       0.23214300       0.80357100       0.46428600 </v>
   <v>       0.73214300       0.30357100       0.46428600 </v>
   <v>       0.73214300       0.80357100       0.46428600 </v>
  </varray>
  <varray name="selective"  type="logical" >
   <v type="logical" >  T  T  T </v>
   <v type="logical" >  T  T  T </v>
   <v type="logical" >  T  T  T </v>
   <v type="logical" >  T  T  T </v>
   <v type="logical" >  F  F  F </v>
   <v type="logical" >  F  F  F </v>
   <v type="logical" >  F  F  F </v>
   <v type="logical" >  F  F  F </v>
  </varray>
  <nose>
   <v>      -3.00000000       0.00000000       0.00010000       0.00010000 </v>
  </nose>
 </structure>
</modeling>
